
     Program PWSCF v.7.1 starts on 20Jul2023 at 17: 5:56 

     This program is part of the open-source Quantum ESPRESSO suite
     for quantum simulation of materials; please cite
         "P. Giannozzi et al., J. Phys.:Condens. Matter 21 395502 (2009);
         "P. Giannozzi et al., J. Phys.:Condens. Matter 29 465901 (2017);
         "P. Giannozzi et al., J. Chem. Phys. 152 154105 (2020);
          URL http://www.quantum-espresso.org", 
     in publications or presentations arising from this work. More details at
     http://www.quantum-espresso.org/quote

     Parallel version (MPI & OpenMP), running on     128 processor cores
     Number of MPI processes:               128
     Threads/MPI process:                     1

     MPI processes distributed on     1 nodes
     1947343 MiB available memory on the printing compute node when the environment starts
 
     Reading input from espresso.pwi
Warning: card &CELL ignored
Warning: card / ignored

     Current dimensions of program PWSCF are:
     Max number of different atomic species (ntypx) = 10
     Max number of k-points (npk) =  40000
     Max angular momentum in pseudopotentials (lmaxx) =  4
     file Ba.pbe-spn-kjpaw_psl.1.0.0.UPF: wavefunction(s)  5S 6S renormalized
     file O.pbe-n-kjpaw_psl.0.1.UPF: wavefunction(s)  2P renormalized

     **************************************************************************
     Initializing libbeef V0.1.2 with the BEEF-vdW functional.
     Citation: Wellendorff et al., PRB 85, 235149 (2012).
     **************************************************************************


     IMPORTANT: XC functional enforced from input :
     Exchange-correlation= BEEF-VDW
                           (   1   4  43  14   2   0   0)
     Any further DFT definition will be discarded
     Please, verify this is what you really want

     Found identity + ( -0.5000 -0.5000  0.5000) symmetry
     This is a supercell, fractional translations are disabled
 
     K-points division:     npool     =       2
     R & G space division:  proc/nbgrp/npool/nimage =      64
     Subspace diagonalization in iterative solution of the eigenvalue problem:
     a serial algorithm will be used

 
     Parallelization info
     --------------------
     sticks:   dense  smooth     PW     G-vecs:    dense   smooth      PW
     Min          38      38     10                 4506     4506     648
     Max          39      39     11                 4517     4517     667
     Sum        2441    2441    673               288673   288673   42045
 
     Using Slab Decomposition
 


     bravais-lattice index     =            6
     lattice parameter (alat)  =       7.9934  a.u.
     unit-cell volume          =    1625.9156 (a.u.)^3
     number of atoms/cell      =           14
     number of atomic types    =            3
     number of electrons       =       116.00
     number of Kohn-Sham states=           58
     kinetic-energy cutoff     =     120.0000  Ry
     charge density cutoff     =     480.0000  Ry
     scf convergence threshold =      1.0E-08
     mixing beta               =       0.7000
     number of iterations used =            8  plain     mixing
     Exchange-correlation= BEEF-VDW
                           (   1   4  43  14   2   0   0)

     celldm(1)=   7.993371  celldm(2)=   0.000000  celldm(3)=   3.183524
     celldm(4)=   0.000000  celldm(5)=   0.000000  celldm(6)=   0.000000

     crystal axes: (cart. coord. in units of alat)
               a(1) = (   1.000000   0.000000   0.000000 )  
               a(2) = (   0.000000   1.000000   0.000000 )  
               a(3) = (   0.000000   0.000000   3.183524 )  

     reciprocal axes: (cart. coord. in units 2 pi/alat)
               b(1) = (  1.000000  0.000000  0.000000 )  
               b(2) = (  0.000000  1.000000  0.000000 )  
               b(3) = (  0.000000  0.000000  0.314117 )  


     PseudoPot. # 1 for Ba read from file:
     /trace/home/atimmins/packages/espresso/pseudo/Ba.pbe-spn-kjpaw_psl.1.0.0.UPF
     MD5 check sum: c432291d3e53af55f19d5e8866385beb
     Pseudo is Projector augmented-wave + core cor, Zval = 10.0
     Generated using "atomic" code by A. Dal Corso  v.5.1
     Shape of augmentation charge: PSQ
     Using radial grid of 1251 points,  7 beta functions with: 
                l(1) =   0
                l(2) =   0
                l(3) =   0
                l(4) =   1
                l(5) =   1
                l(6) =   2
                l(7) =   2
     Q(r) pseudized with 0 coefficients 


     PseudoPot. # 2 for Sn read from file:
     /trace/home/atimmins/packages/espresso/pseudo/Sn_pbe_v1.uspp.F.UPF
     MD5 check sum: 4cf58ce39ec5d5d420df3dd08604eb00
     Pseudo is Ultrasoft + core correction, Zval = 14.0
     Generated by new atomic code, or converted to UPF format
     Using radial grid of  891 points,  6 beta functions with: 
                l(1) =   0
                l(2) =   0
                l(3) =   1
                l(4) =   1
                l(5) =   2
                l(6) =   2
     Q(r) pseudized with  6 coefficients,  rinner =    1.200   1.200   1.200
                                                       1.200   1.200

     PseudoPot. # 3 for O  read from file:
     /trace/home/atimmins/packages/espresso/pseudo/O.pbe-n-kjpaw_psl.0.1.UPF
     MD5 check sum: 0234752ac141de4415c5fc33072bef88
     Pseudo is Projector augmented-wave + core cor, Zval =  6.0
     Generated using "atomic" code by A. Dal Corso  v.5.0.99 svn rev. 10869
     Shape of augmentation charge: BESSEL
     Using radial grid of 1095 points,  4 beta functions with: 
                l(1) =   0
                l(2) =   0
                l(3) =   1
                l(4) =   1
     Q(r) pseudized with 0 coefficients 


     atomic species   valence    mass     pseudopotential
        Ba            10.00   137.32700     Ba( 1.00)
        Sn            14.00   118.71000     Sn( 1.00)
        O              6.00    15.99900     O ( 1.00)

     16 Sym. Ops., with inversion, found


                                    s                        frac. trans.

      isym =  1     identity                                     

 cryst.   s( 1) = (     1          0          0      )
                  (     0          1          0      )
                  (     0          0          1      )

 cart.    s( 1) = (  1.0000000  0.0000000  0.0000000 )
                  (  0.0000000  1.0000000  0.0000000 )
                  (  0.0000000  0.0000000  1.0000000 )


      isym =  2     180 deg rotation - cart. axis [0,0,1]        

 cryst.   s( 2) = (    -1          0          0      )
                  (     0         -1          0      )
                  (     0          0          1      )

 cart.    s( 2) = ( -1.0000000  0.0000000  0.0000000 )
                  (  0.0000000 -1.0000000  0.0000000 )
                  (  0.0000000  0.0000000  1.0000000 )


      isym =  3     180 deg rotation - cart. axis [0,1,0]        

 cryst.   s( 3) = (    -1          0          0      )
                  (     0          1          0      )
                  (     0          0         -1      )

 cart.    s( 3) = ( -1.0000000  0.0000000  0.0000000 )
                  (  0.0000000  1.0000000  0.0000000 )
                  (  0.0000000  0.0000000 -1.0000000 )


      isym =  4     180 deg rotation - cart. axis [1,0,0]        

 cryst.   s( 4) = (     1          0          0      )
                  (     0         -1          0      )
                  (     0          0         -1      )

 cart.    s( 4) = (  1.0000000  0.0000000  0.0000000 )
                  (  0.0000000 -1.0000000  0.0000000 )
                  (  0.0000000  0.0000000 -1.0000000 )


      isym =  5     180 deg rotation - cart. axis [1,1,0]        

 cryst.   s( 5) = (     0          1          0      )
                  (     1          0          0      )
                  (     0          0         -1      )

 cart.    s( 5) = (  0.0000000  1.0000000  0.0000000 )
                  (  1.0000000  0.0000000  0.0000000 )
                  (  0.0000000  0.0000000 -1.0000000 )


      isym =  6     180 deg rotation - cart. axis [1,-1,0]       

 cryst.   s( 6) = (     0         -1          0      )
                  (    -1          0          0      )
                  (     0          0         -1      )

 cart.    s( 6) = (  0.0000000 -1.0000000  0.0000000 )
                  ( -1.0000000  0.0000000  0.0000000 )
                  (  0.0000000  0.0000000 -1.0000000 )


      isym =  7      90 deg rotation - cart. axis [0,0,-1]       

 cryst.   s( 7) = (     0         -1          0      )
                  (     1          0          0      )
                  (     0          0          1      )

 cart.    s( 7) = (  0.0000000  1.0000000  0.0000000 )
                  ( -1.0000000  0.0000000  0.0000000 )
                  (  0.0000000  0.0000000  1.0000000 )


      isym =  8      90 deg rotation - cart. axis [0,0,1]        

 cryst.   s( 8) = (     0          1          0      )
                  (    -1          0          0      )
                  (     0          0          1      )

 cart.    s( 8) = (  0.0000000 -1.0000000  0.0000000 )
                  (  1.0000000  0.0000000  0.0000000 )
                  (  0.0000000  0.0000000  1.0000000 )


      isym =  9     inversion                                    

 cryst.   s( 9) = (    -1          0          0      )
                  (     0         -1          0      )
                  (     0          0         -1      )

 cart.    s( 9) = ( -1.0000000  0.0000000  0.0000000 )
                  (  0.0000000 -1.0000000  0.0000000 )
                  (  0.0000000  0.0000000 -1.0000000 )


      isym = 10     inv. 180 deg rotation - cart. axis [0,0,1]   

 cryst.   s(10) = (     1          0          0      )
                  (     0          1          0      )
                  (     0          0         -1      )

 cart.    s(10) = (  1.0000000  0.0000000  0.0000000 )
                  (  0.0000000  1.0000000  0.0000000 )
                  (  0.0000000  0.0000000 -1.0000000 )


      isym = 11     inv. 180 deg rotation - cart. axis [0,1,0]   

 cryst.   s(11) = (     1          0          0      )
                  (     0         -1          0      )
                  (     0          0          1      )

 cart.    s(11) = (  1.0000000  0.0000000  0.0000000 )
                  (  0.0000000 -1.0000000  0.0000000 )
                  (  0.0000000  0.0000000  1.0000000 )


      isym = 12     inv. 180 deg rotation - cart. axis [1,0,0]   

 cryst.   s(12) = (    -1          0          0      )
                  (     0          1          0      )
                  (     0          0          1      )

 cart.    s(12) = ( -1.0000000  0.0000000  0.0000000 )
                  (  0.0000000  1.0000000  0.0000000 )
                  (  0.0000000  0.0000000  1.0000000 )


      isym = 13     inv. 180 deg rotation - cart. axis [1,1,0]   

 cryst.   s(13) = (     0         -1          0      )
                  (    -1          0          0      )
                  (     0          0          1      )

 cart.    s(13) = (  0.0000000 -1.0000000  0.0000000 )
                  ( -1.0000000  0.0000000  0.0000000 )
                  (  0.0000000  0.0000000  1.0000000 )


      isym = 14     inv. 180 deg rotation - cart. axis [1,-1,0]  

 cryst.   s(14) = (     0          1          0      )
                  (     1          0          0      )
                  (     0          0          1      )

 cart.    s(14) = (  0.0000000  1.0000000  0.0000000 )
                  (  1.0000000  0.0000000  0.0000000 )
                  (  0.0000000  0.0000000  1.0000000 )


      isym = 15     inv.  90 deg rotation - cart. axis [0,0,-1]  

 cryst.   s(15) = (     0          1          0      )
                  (    -1          0          0      )
                  (     0          0         -1      )

 cart.    s(15) = (  0.0000000 -1.0000000  0.0000000 )
                  (  1.0000000  0.0000000  0.0000000 )
                  (  0.0000000  0.0000000 -1.0000000 )


      isym = 16     inv.  90 deg rotation - cart. axis [0,0,1]   

 cryst.   s(16) = (     0         -1          0      )
                  (     1          0          0      )
                  (     0          0         -1      )

 cart.    s(16) = (  0.0000000  1.0000000  0.0000000 )
                  ( -1.0000000  0.0000000  0.0000000 )
                  (  0.0000000  0.0000000 -1.0000000 )


     point group D_4h(4/mmm)
     there are 10 classes
     the character table:

       E     2C4   C2    2C2'  2C2'' i     2S4   s_h   2s_v  2s_d 
A_1g   1.00  1.00  1.00  1.00  1.00  1.00  1.00  1.00  1.00  1.00
A_2g   1.00  1.00  1.00 -1.00 -1.00  1.00  1.00  1.00 -1.00 -1.00
B_1g   1.00 -1.00  1.00  1.00 -1.00  1.00 -1.00  1.00  1.00 -1.00
B_2g   1.00 -1.00  1.00 -1.00  1.00  1.00 -1.00  1.00 -1.00  1.00
E_g    2.00  0.00 -2.00  0.00  0.00  2.00  0.00 -2.00  0.00  0.00
A_1u   1.00  1.00  1.00  1.00  1.00 -1.00 -1.00 -1.00 -1.00 -1.00
A_2u   1.00  1.00  1.00 -1.00 -1.00 -1.00 -1.00 -1.00  1.00  1.00
B_1u   1.00 -1.00  1.00  1.00 -1.00 -1.00  1.00 -1.00 -1.00  1.00
B_2u   1.00 -1.00  1.00 -1.00  1.00 -1.00  1.00 -1.00  1.00 -1.00
E_u    2.00  0.00 -2.00  0.00  0.00 -2.00  0.00  2.00  0.00  0.00

     the symmetry operations in each class and the name of the first element:

     E        1
          identity                                               
     2C4      7    8
           90 deg rotation - cart. axis [0,0,-1]                 
     C2       2
          180 deg rotation - cart. axis [0,0,1]                  
     2C2'     3    4
          180 deg rotation - cart. axis [0,1,0]                  
     2C2''    5    6
          180 deg rotation - cart. axis [1,1,0]                  
     i        9
          inversion                                              
     2S4     15   16
          inv.  90 deg rotation - cart. axis [0,0,-1]            
     s_h     10
          inv. 180 deg rotation - cart. axis [0,0,1]             
     2s_v    11   12
          inv. 180 deg rotation - cart. axis [0,1,0]             
     2s_d    13   14
          inv. 180 deg rotation - cart. axis [1,1,0]             

   Cartesian axes

     site n.     atom                  positions (alat units)
         1           Ba  tau(   1) = (   0.5000000   0.5000000   0.4634015  )
         2           Ba  tau(   2) = (   0.0000000   0.0000000   1.1283641  )
         3           Ba  tau(   3) = (   0.0000000   0.0000000   2.0551594  )
         4           Ba  tau(   4) = (   0.5000000   0.5000000   2.7201221  )
         5           Sn  tau(   5) = (   0.0000000   0.0000000   0.0000000  )
         6           Sn  tau(   6) = (   0.5000000   0.5000000   1.5917618  )
         7           O   tau(   7) = (   0.5000000   0.5000000   1.0955611  )
         8           O   tau(   8) = (   0.0000000   0.0000000   0.4962015  )
         9           O   tau(   9) = (   0.5000000   0.0000000   0.0000000  )
        10           O   tau(  10) = (   0.0000000   0.5000000   0.0000000  )
        11           O   tau(  11) = (   0.0000000   0.0000000   2.6873220  )
        12           O   tau(  12) = (   0.5000000   0.5000000   2.0879625  )
        13           O   tau(  13) = (   0.0000000   0.5000000   1.5917618  )
        14           O   tau(  14) = (   0.5000000   0.0000000   1.5917618  )

   Crystallographic axes

     site n.     atom                  positions (cryst. coord.)
         1           Ba  tau(   1) = (  0.5000000  0.5000000  0.1455624  )
         2           Ba  tau(   2) = (  0.0000000  0.0000000  0.3544388  )
         3           Ba  tau(   3) = (  0.0000000  0.0000000  0.6455612  )
         4           Ba  tau(   4) = (  0.5000000  0.5000000  0.8544376  )
         5           Sn  tau(   5) = (  0.0000000  0.0000000  0.0000000  )
         6           Sn  tau(   6) = (  0.5000000  0.5000000  0.5000000  )
         7           O   tau(   7) = (  0.5000000  0.5000000  0.3441347  )
         8           O   tau(   8) = (  0.0000000  0.0000000  0.1558655  )
         9           O   tau(   9) = (  0.5000000  0.0000000  0.0000000  )
        10           O   tau(  10) = (  0.0000000  0.5000000  0.0000000  )
        11           O   tau(  11) = (  0.0000000  0.0000000  0.8441345  )
        12           O   tau(  12) = (  0.5000000  0.5000000  0.6558653  )
        13           O   tau(  13) = (  0.0000000  0.5000000  0.5000000  )
        14           O   tau(  14) = (  0.5000000  0.0000000  0.5000000  )

     number of k points=   126
                       cart. coord. in units 2pi/alat
        k(    1) = (   0.0000000   0.0000000   0.0000000), wk =   0.0020000
        k(    2) = (   0.0000000   0.0000000   0.0314117), wk =   0.0040000
        k(    3) = (   0.0000000   0.0000000   0.0628235), wk =   0.0040000
        k(    4) = (   0.0000000   0.0000000   0.0942352), wk =   0.0040000
        k(    5) = (   0.0000000   0.0000000   0.1256469), wk =   0.0040000
        k(    6) = (   0.0000000   0.0000000  -0.1570587), wk =   0.0020000
        k(    7) = (   0.0000000   0.1000000   0.0000000), wk =   0.0080000
        k(    8) = (   0.0000000   0.1000000   0.0314117), wk =   0.0160000
        k(    9) = (   0.0000000   0.1000000   0.0628235), wk =   0.0160000
        k(   10) = (   0.0000000   0.1000000   0.0942352), wk =   0.0160000
        k(   11) = (   0.0000000   0.1000000   0.1256469), wk =   0.0160000
        k(   12) = (   0.0000000   0.1000000  -0.1570587), wk =   0.0080000
        k(   13) = (   0.0000000   0.2000000   0.0000000), wk =   0.0080000
        k(   14) = (   0.0000000   0.2000000   0.0314117), wk =   0.0160000
        k(   15) = (   0.0000000   0.2000000   0.0628235), wk =   0.0160000
        k(   16) = (   0.0000000   0.2000000   0.0942352), wk =   0.0160000
        k(   17) = (   0.0000000   0.2000000   0.1256469), wk =   0.0160000
        k(   18) = (   0.0000000   0.2000000  -0.1570587), wk =   0.0080000
        k(   19) = (   0.0000000   0.3000000   0.0000000), wk =   0.0080000
        k(   20) = (   0.0000000   0.3000000   0.0314117), wk =   0.0160000
        k(   21) = (   0.0000000   0.3000000   0.0628235), wk =   0.0160000
        k(   22) = (   0.0000000   0.3000000   0.0942352), wk =   0.0160000
        k(   23) = (   0.0000000   0.3000000   0.1256469), wk =   0.0160000
        k(   24) = (   0.0000000   0.3000000  -0.1570587), wk =   0.0080000
        k(   25) = (   0.0000000   0.4000000   0.0000000), wk =   0.0080000
        k(   26) = (   0.0000000   0.4000000   0.0314117), wk =   0.0160000
        k(   27) = (   0.0000000   0.4000000   0.0628235), wk =   0.0160000
        k(   28) = (   0.0000000   0.4000000   0.0942352), wk =   0.0160000
        k(   29) = (   0.0000000   0.4000000   0.1256469), wk =   0.0160000
        k(   30) = (   0.0000000   0.4000000  -0.1570587), wk =   0.0080000
        k(   31) = (   0.0000000  -0.5000000   0.0000000), wk =   0.0040000
        k(   32) = (   0.0000000  -0.5000000   0.0314117), wk =   0.0080000
        k(   33) = (   0.0000000  -0.5000000   0.0628235), wk =   0.0080000
        k(   34) = (   0.0000000  -0.5000000   0.0942352), wk =   0.0080000
        k(   35) = (   0.0000000  -0.5000000   0.1256469), wk =   0.0080000
        k(   36) = (   0.0000000  -0.5000000  -0.1570587), wk =   0.0040000
        k(   37) = (   0.1000000   0.1000000   0.0000000), wk =   0.0080000
        k(   38) = (   0.1000000   0.1000000   0.0314117), wk =   0.0160000
        k(   39) = (   0.1000000   0.1000000   0.0628235), wk =   0.0160000
        k(   40) = (   0.1000000   0.1000000   0.0942352), wk =   0.0160000
        k(   41) = (   0.1000000   0.1000000   0.1256469), wk =   0.0160000
        k(   42) = (   0.1000000   0.1000000  -0.1570587), wk =   0.0080000
        k(   43) = (   0.1000000   0.2000000   0.0000000), wk =   0.0160000
        k(   44) = (   0.1000000   0.2000000   0.0314117), wk =   0.0320000
        k(   45) = (   0.1000000   0.2000000   0.0628235), wk =   0.0320000
        k(   46) = (   0.1000000   0.2000000   0.0942352), wk =   0.0320000
        k(   47) = (   0.1000000   0.2000000   0.1256469), wk =   0.0320000
        k(   48) = (   0.1000000   0.2000000  -0.1570587), wk =   0.0160000
        k(   49) = (   0.1000000   0.3000000   0.0000000), wk =   0.0160000
        k(   50) = (   0.1000000   0.3000000   0.0314117), wk =   0.0320000
        k(   51) = (   0.1000000   0.3000000   0.0628235), wk =   0.0320000
        k(   52) = (   0.1000000   0.3000000   0.0942352), wk =   0.0320000
        k(   53) = (   0.1000000   0.3000000   0.1256469), wk =   0.0320000
        k(   54) = (   0.1000000   0.3000000  -0.1570587), wk =   0.0160000
        k(   55) = (   0.1000000   0.4000000   0.0000000), wk =   0.0160000
        k(   56) = (   0.1000000   0.4000000   0.0314117), wk =   0.0320000
        k(   57) = (   0.1000000   0.4000000   0.0628235), wk =   0.0320000
        k(   58) = (   0.1000000   0.4000000   0.0942352), wk =   0.0320000
        k(   59) = (   0.1000000   0.4000000   0.1256469), wk =   0.0320000
        k(   60) = (   0.1000000   0.4000000  -0.1570587), wk =   0.0160000
        k(   61) = (   0.1000000  -0.5000000   0.0000000), wk =   0.0080000
        k(   62) = (   0.1000000  -0.5000000   0.0314117), wk =   0.0160000
        k(   63) = (   0.1000000  -0.5000000   0.0628235), wk =   0.0160000
        k(   64) = (   0.1000000  -0.5000000   0.0942352), wk =   0.0160000
        k(   65) = (   0.1000000  -0.5000000   0.1256469), wk =   0.0160000
        k(   66) = (   0.1000000  -0.5000000  -0.1570587), wk =   0.0080000
        k(   67) = (   0.2000000   0.2000000   0.0000000), wk =   0.0080000
        k(   68) = (   0.2000000   0.2000000   0.0314117), wk =   0.0160000
        k(   69) = (   0.2000000   0.2000000   0.0628235), wk =   0.0160000
        k(   70) = (   0.2000000   0.2000000   0.0942352), wk =   0.0160000
        k(   71) = (   0.2000000   0.2000000   0.1256469), wk =   0.0160000
        k(   72) = (   0.2000000   0.2000000  -0.1570587), wk =   0.0080000
        k(   73) = (   0.2000000   0.3000000   0.0000000), wk =   0.0160000
        k(   74) = (   0.2000000   0.3000000   0.0314117), wk =   0.0320000
        k(   75) = (   0.2000000   0.3000000   0.0628235), wk =   0.0320000
        k(   76) = (   0.2000000   0.3000000   0.0942352), wk =   0.0320000
        k(   77) = (   0.2000000   0.3000000   0.1256469), wk =   0.0320000
        k(   78) = (   0.2000000   0.3000000  -0.1570587), wk =   0.0160000
        k(   79) = (   0.2000000   0.4000000   0.0000000), wk =   0.0160000
        k(   80) = (   0.2000000   0.4000000   0.0314117), wk =   0.0320000
        k(   81) = (   0.2000000   0.4000000   0.0628235), wk =   0.0320000
        k(   82) = (   0.2000000   0.4000000   0.0942352), wk =   0.0320000
        k(   83) = (   0.2000000   0.4000000   0.1256469), wk =   0.0320000
        k(   84) = (   0.2000000   0.4000000  -0.1570587), wk =   0.0160000
        k(   85) = (   0.2000000  -0.5000000   0.0000000), wk =   0.0080000
        k(   86) = (   0.2000000  -0.5000000   0.0314117), wk =   0.0160000
        k(   87) = (   0.2000000  -0.5000000   0.0628235), wk =   0.0160000
        k(   88) = (   0.2000000  -0.5000000   0.0942352), wk =   0.0160000
        k(   89) = (   0.2000000  -0.5000000   0.1256469), wk =   0.0160000
        k(   90) = (   0.2000000  -0.5000000  -0.1570587), wk =   0.0080000
        k(   91) = (   0.3000000   0.3000000   0.0000000), wk =   0.0080000
        k(   92) = (   0.3000000   0.3000000   0.0314117), wk =   0.0160000
        k(   93) = (   0.3000000   0.3000000   0.0628235), wk =   0.0160000
        k(   94) = (   0.3000000   0.3000000   0.0942352), wk =   0.0160000
        k(   95) = (   0.3000000   0.3000000   0.1256469), wk =   0.0160000
        k(   96) = (   0.3000000   0.3000000  -0.1570587), wk =   0.0080000
        k(   97) = (   0.3000000   0.4000000   0.0000000), wk =   0.0160000
        k(   98) = (   0.3000000   0.4000000   0.0314117), wk =   0.0320000
        k(   99) = (   0.3000000   0.4000000   0.0628235), wk =   0.0320000
        k(  100) = (   0.3000000   0.4000000   0.0942352), wk =   0.0320000
        k(  101) = (   0.3000000   0.4000000   0.1256469), wk =   0.0320000
        k(  102) = (   0.3000000   0.4000000  -0.1570587), wk =   0.0160000
        k(  103) = (   0.3000000  -0.5000000   0.0000000), wk =   0.0080000
        k(  104) = (   0.3000000  -0.5000000   0.0314117), wk =   0.0160000
        k(  105) = (   0.3000000  -0.5000000   0.0628235), wk =   0.0160000
        k(  106) = (   0.3000000  -0.5000000   0.0942352), wk =   0.0160000
        k(  107) = (   0.3000000  -0.5000000   0.1256469), wk =   0.0160000
        k(  108) = (   0.3000000  -0.5000000  -0.1570587), wk =   0.0080000
        k(  109) = (   0.4000000   0.4000000   0.0000000), wk =   0.0080000
        k(  110) = (   0.4000000   0.4000000   0.0314117), wk =   0.0160000
        k(  111) = (   0.4000000   0.4000000   0.0628235), wk =   0.0160000
        k(  112) = (   0.4000000   0.4000000   0.0942352), wk =   0.0160000
        k(  113) = (   0.4000000   0.4000000   0.1256469), wk =   0.0160000
        k(  114) = (   0.4000000   0.4000000  -0.1570587), wk =   0.0080000
        k(  115) = (   0.4000000  -0.5000000   0.0000000), wk =   0.0080000
        k(  116) = (   0.4000000  -0.5000000   0.0314117), wk =   0.0160000
        k(  117) = (   0.4000000  -0.5000000   0.0628235), wk =   0.0160000
        k(  118) = (   0.4000000  -0.5000000   0.0942352), wk =   0.0160000
        k(  119) = (   0.4000000  -0.5000000   0.1256469), wk =   0.0160000
        k(  120) = (   0.4000000  -0.5000000  -0.1570587), wk =   0.0080000
        k(  121) = (  -0.5000000  -0.5000000   0.0000000), wk =   0.0020000
        k(  122) = (  -0.5000000  -0.5000000   0.0314117), wk =   0.0040000
        k(  123) = (  -0.5000000  -0.5000000   0.0628235), wk =   0.0040000
        k(  124) = (  -0.5000000  -0.5000000   0.0942352), wk =   0.0040000
        k(  125) = (  -0.5000000  -0.5000000   0.1256469), wk =   0.0040000
        k(  126) = (  -0.5000000  -0.5000000  -0.1570587), wk =   0.0020000

                       cryst. coord.
        k(    1) = (   0.0000000   0.0000000   0.0000000), wk =   0.0020000
        k(    2) = (   0.0000000   0.0000000   0.1000000), wk =   0.0040000
        k(    3) = (   0.0000000   0.0000000   0.2000000), wk =   0.0040000
        k(    4) = (   0.0000000   0.0000000   0.3000000), wk =   0.0040000
        k(    5) = (   0.0000000   0.0000000   0.4000000), wk =   0.0040000
        k(    6) = (   0.0000000   0.0000000  -0.5000000), wk =   0.0020000
        k(    7) = (   0.0000000   0.1000000   0.0000000), wk =   0.0080000
        k(    8) = (   0.0000000   0.1000000   0.1000000), wk =   0.0160000
        k(    9) = (   0.0000000   0.1000000   0.2000000), wk =   0.0160000
        k(   10) = (   0.0000000   0.1000000   0.3000000), wk =   0.0160000
        k(   11) = (   0.0000000   0.1000000   0.4000000), wk =   0.0160000
        k(   12) = (   0.0000000   0.1000000  -0.5000000), wk =   0.0080000
        k(   13) = (   0.0000000   0.2000000   0.0000000), wk =   0.0080000
        k(   14) = (   0.0000000   0.2000000   0.1000000), wk =   0.0160000
        k(   15) = (   0.0000000   0.2000000   0.2000000), wk =   0.0160000
        k(   16) = (   0.0000000   0.2000000   0.3000000), wk =   0.0160000
        k(   17) = (   0.0000000   0.2000000   0.4000000), wk =   0.0160000
        k(   18) = (   0.0000000   0.2000000  -0.5000000), wk =   0.0080000
        k(   19) = (   0.0000000   0.3000000   0.0000000), wk =   0.0080000
        k(   20) = (   0.0000000   0.3000000   0.1000000), wk =   0.0160000
        k(   21) = (   0.0000000   0.3000000   0.2000000), wk =   0.0160000
        k(   22) = (   0.0000000   0.3000000   0.3000000), wk =   0.0160000
        k(   23) = (   0.0000000   0.3000000   0.4000000), wk =   0.0160000
        k(   24) = (   0.0000000   0.3000000  -0.5000000), wk =   0.0080000
        k(   25) = (   0.0000000   0.4000000   0.0000000), wk =   0.0080000
        k(   26) = (   0.0000000   0.4000000   0.1000000), wk =   0.0160000
        k(   27) = (   0.0000000   0.4000000   0.2000000), wk =   0.0160000
        k(   28) = (   0.0000000   0.4000000   0.3000000), wk =   0.0160000
        k(   29) = (   0.0000000   0.4000000   0.4000000), wk =   0.0160000
        k(   30) = (   0.0000000   0.4000000  -0.5000000), wk =   0.0080000
        k(   31) = (   0.0000000  -0.5000000   0.0000000), wk =   0.0040000
        k(   32) = (   0.0000000  -0.5000000   0.1000000), wk =   0.0080000
        k(   33) = (   0.0000000  -0.5000000   0.2000000), wk =   0.0080000
        k(   34) = (   0.0000000  -0.5000000   0.3000000), wk =   0.0080000
        k(   35) = (   0.0000000  -0.5000000   0.4000000), wk =   0.0080000
        k(   36) = (   0.0000000  -0.5000000  -0.5000000), wk =   0.0040000
        k(   37) = (   0.1000000   0.1000000   0.0000000), wk =   0.0080000
        k(   38) = (   0.1000000   0.1000000   0.1000000), wk =   0.0160000
        k(   39) = (   0.1000000   0.1000000   0.2000000), wk =   0.0160000
        k(   40) = (   0.1000000   0.1000000   0.3000000), wk =   0.0160000
        k(   41) = (   0.1000000   0.1000000   0.4000000), wk =   0.0160000
        k(   42) = (   0.1000000   0.1000000  -0.5000000), wk =   0.0080000
        k(   43) = (   0.1000000   0.2000000   0.0000000), wk =   0.0160000
        k(   44) = (   0.1000000   0.2000000   0.1000000), wk =   0.0320000
        k(   45) = (   0.1000000   0.2000000   0.2000000), wk =   0.0320000
        k(   46) = (   0.1000000   0.2000000   0.3000000), wk =   0.0320000
        k(   47) = (   0.1000000   0.2000000   0.4000000), wk =   0.0320000
        k(   48) = (   0.1000000   0.2000000  -0.5000000), wk =   0.0160000
        k(   49) = (   0.1000000   0.3000000   0.0000000), wk =   0.0160000
        k(   50) = (   0.1000000   0.3000000   0.1000000), wk =   0.0320000
        k(   51) = (   0.1000000   0.3000000   0.2000000), wk =   0.0320000
        k(   52) = (   0.1000000   0.3000000   0.3000000), wk =   0.0320000
        k(   53) = (   0.1000000   0.3000000   0.4000000), wk =   0.0320000
        k(   54) = (   0.1000000   0.3000000  -0.5000000), wk =   0.0160000
        k(   55) = (   0.1000000   0.4000000   0.0000000), wk =   0.0160000
        k(   56) = (   0.1000000   0.4000000   0.1000000), wk =   0.0320000
        k(   57) = (   0.1000000   0.4000000   0.2000000), wk =   0.0320000
        k(   58) = (   0.1000000   0.4000000   0.3000000), wk =   0.0320000
        k(   59) = (   0.1000000   0.4000000   0.4000000), wk =   0.0320000
        k(   60) = (   0.1000000   0.4000000  -0.5000000), wk =   0.0160000
        k(   61) = (   0.1000000  -0.5000000   0.0000000), wk =   0.0080000
        k(   62) = (   0.1000000  -0.5000000   0.1000000), wk =   0.0160000
        k(   63) = (   0.1000000  -0.5000000   0.2000000), wk =   0.0160000
        k(   64) = (   0.1000000  -0.5000000   0.3000000), wk =   0.0160000
        k(   65) = (   0.1000000  -0.5000000   0.4000000), wk =   0.0160000
        k(   66) = (   0.1000000  -0.5000000  -0.5000000), wk =   0.0080000
        k(   67) = (   0.2000000   0.2000000   0.0000000), wk =   0.0080000
        k(   68) = (   0.2000000   0.2000000   0.1000000), wk =   0.0160000
        k(   69) = (   0.2000000   0.2000000   0.2000000), wk =   0.0160000
        k(   70) = (   0.2000000   0.2000000   0.3000000), wk =   0.0160000
        k(   71) = (   0.2000000   0.2000000   0.4000000), wk =   0.0160000
        k(   72) = (   0.2000000   0.2000000  -0.5000000), wk =   0.0080000
        k(   73) = (   0.2000000   0.3000000   0.0000000), wk =   0.0160000
        k(   74) = (   0.2000000   0.3000000   0.1000000), wk =   0.0320000
        k(   75) = (   0.2000000   0.3000000   0.2000000), wk =   0.0320000
        k(   76) = (   0.2000000   0.3000000   0.3000000), wk =   0.0320000
        k(   77) = (   0.2000000   0.3000000   0.4000000), wk =   0.0320000
        k(   78) = (   0.2000000   0.3000000  -0.5000000), wk =   0.0160000
        k(   79) = (   0.2000000   0.4000000   0.0000000), wk =   0.0160000
        k(   80) = (   0.2000000   0.4000000   0.1000000), wk =   0.0320000
        k(   81) = (   0.2000000   0.4000000   0.2000000), wk =   0.0320000
        k(   82) = (   0.2000000   0.4000000   0.3000000), wk =   0.0320000
        k(   83) = (   0.2000000   0.4000000   0.4000000), wk =   0.0320000
        k(   84) = (   0.2000000   0.4000000  -0.5000000), wk =   0.0160000
        k(   85) = (   0.2000000  -0.5000000   0.0000000), wk =   0.0080000
        k(   86) = (   0.2000000  -0.5000000   0.1000000), wk =   0.0160000
        k(   87) = (   0.2000000  -0.5000000   0.2000000), wk =   0.0160000
        k(   88) = (   0.2000000  -0.5000000   0.3000000), wk =   0.0160000
        k(   89) = (   0.2000000  -0.5000000   0.4000000), wk =   0.0160000
        k(   90) = (   0.2000000  -0.5000000  -0.5000000), wk =   0.0080000
        k(   91) = (   0.3000000   0.3000000   0.0000000), wk =   0.0080000
        k(   92) = (   0.3000000   0.3000000   0.1000000), wk =   0.0160000
        k(   93) = (   0.3000000   0.3000000   0.2000000), wk =   0.0160000
        k(   94) = (   0.3000000   0.3000000   0.3000000), wk =   0.0160000
        k(   95) = (   0.3000000   0.3000000   0.4000000), wk =   0.0160000
        k(   96) = (   0.3000000   0.3000000  -0.5000000), wk =   0.0080000
        k(   97) = (   0.3000000   0.4000000   0.0000000), wk =   0.0160000
        k(   98) = (   0.3000000   0.4000000   0.1000000), wk =   0.0320000
        k(   99) = (   0.3000000   0.4000000   0.2000000), wk =   0.0320000
        k(  100) = (   0.3000000   0.4000000   0.3000000), wk =   0.0320000
        k(  101) = (   0.3000000   0.4000000   0.4000000), wk =   0.0320000
        k(  102) = (   0.3000000   0.4000000  -0.5000000), wk =   0.0160000
        k(  103) = (   0.3000000  -0.5000000   0.0000000), wk =   0.0080000
        k(  104) = (   0.3000000  -0.5000000   0.1000000), wk =   0.0160000
        k(  105) = (   0.3000000  -0.5000000   0.2000000), wk =   0.0160000
        k(  106) = (   0.3000000  -0.5000000   0.3000000), wk =   0.0160000
        k(  107) = (   0.3000000  -0.5000000   0.4000000), wk =   0.0160000
        k(  108) = (   0.3000000  -0.5000000  -0.5000000), wk =   0.0080000
        k(  109) = (   0.4000000   0.4000000   0.0000000), wk =   0.0080000
        k(  110) = (   0.4000000   0.4000000   0.1000000), wk =   0.0160000
        k(  111) = (   0.4000000   0.4000000   0.2000000), wk =   0.0160000
        k(  112) = (   0.4000000   0.4000000   0.3000000), wk =   0.0160000
        k(  113) = (   0.4000000   0.4000000   0.4000000), wk =   0.0160000
        k(  114) = (   0.4000000   0.4000000  -0.5000000), wk =   0.0080000
        k(  115) = (   0.4000000  -0.5000000   0.0000000), wk =   0.0080000
        k(  116) = (   0.4000000  -0.5000000   0.1000000), wk =   0.0160000
        k(  117) = (   0.4000000  -0.5000000   0.2000000), wk =   0.0160000
        k(  118) = (   0.4000000  -0.5000000   0.3000000), wk =   0.0160000
        k(  119) = (   0.4000000  -0.5000000   0.4000000), wk =   0.0160000
        k(  120) = (   0.4000000  -0.5000000  -0.5000000), wk =   0.0080000
        k(  121) = (  -0.5000000  -0.5000000   0.0000000), wk =   0.0020000
        k(  122) = (  -0.5000000  -0.5000000   0.1000000), wk =   0.0040000
        k(  123) = (  -0.5000000  -0.5000000   0.2000000), wk =   0.0040000
        k(  124) = (  -0.5000000  -0.5000000   0.3000000), wk =   0.0040000
        k(  125) = (  -0.5000000  -0.5000000   0.4000000), wk =   0.0040000
        k(  126) = (  -0.5000000  -0.5000000  -0.5000000), wk =   0.0020000

     Dense  grid:   288673 G-vectors     FFT dimensions: (  60,  60, 180)

     Dynamical RAM for                 wfc:       0.50 MB

     Dynamical RAM for     wfc (w. buffer):      31.89 MB

     Dynamical RAM for           str. fact:       0.21 MB

     Dynamical RAM for           local pot:       0.00 MB

     Dynamical RAM for          nlocal pot:       1.51 MB

     Dynamical RAM for                qrad:       7.03 MB

     Dynamical RAM for          rho,v,vnew:       0.45 MB

     Dynamical RAM for               rhoin:       0.15 MB

     Dynamical RAM for            rho*nmix:       1.10 MB

     Dynamical RAM for           G-vectors:       0.29 MB

     Dynamical RAM for          h,s,v(r/c):       0.62 MB

     Dynamical RAM for          <psi|beta>:       0.16 MB

     Dynamical RAM for                 psi:       1.00 MB

     Dynamical RAM for                hpsi:       1.00 MB

     Dynamical RAM for                spsi:       1.00 MB

     Dynamical RAM for      wfcinit/wfcrot:       1.32 MB

     Dynamical RAM for           addusdens:       7.37 MB

     Dynamical RAM for          addusforce:       7.89 MB

     Dynamical RAM for         addusstress:       7.60 MB

     Estimated static dynamical RAM per process >      42.22 MB

     Estimated max dynamical RAM per process >      51.22 MB

     Estimated total dynamical RAM >       6.33 GB

     Initial potential from superposition of free atoms

     starting charge     113.9319, renormalised to     116.0000


     %%%%%%%%%%%%%%%%%%%%%%%%%%%%%%%%%%%%%%%%%%%%%%%%%%%%%%%%%%%%%%%%%%%%%%%%
     %                                                                      %
     % You are using vdW-DF, which was implemented by the Thonhauser group. %
     % Please cite the following two papers that made this development      %
     % possible and the two reviews that describe the various versions:     %
     %                                                                      %
     %   T. Thonhauser et al., PRL 115, 136402 (2015).                      %
     %   T. Thonhauser et al., PRB 76, 125112 (2007).                       %
     %   K. Berland et al., Rep. Prog. Phys. 78, 066501 (2015).             %
     %   D.C. Langreth et al., J. Phys.: Condens. Matter 21, 084203 (2009). %
     %                                                                      %
     % If you are calculating stress with vdW-DF, please also cite:         %
     %                                                                      %
     %   R. Sabatini et al., J. Phys.: Condens. Matter 24, 424209 (2012).   %
     %                                                                      %
     %%%%%%%%%%%%%%%%%%%%%%%%%%%%%%%%%%%%%%%%%%%%%%%%%%%%%%%%%%%%%%%%%%%%%%%%

     %%%%%%%%%%%%%%%%%%%%%%%%%%%%%%%%%%%%%%%%%%%%%%%%%%%%%%%%%%%%%%%%%%%%%%%%
     %                                                                      %
     %  vdW-DF NEWS:                                                        %
     %                                                                      %
     %  * vdW-DF3 is now available. DOI: 10.1021/acs.jctc.0c00471           %
     %    use with input_dft = 'vdW-DF3-opt1' or 'vdW-DF3-opt2'             %
     %                                                                      %
     %  * Unscreened and range-separated vdW-DF hybrid functionals          %
     %    DOI: 10.1063/1.4986522 and 10.1088/1361-648X/ac2ad2               %
     %    use with input_dft = 'vdW-DF-cx0' (etc) and 'vdW-DF-ahcx'         %
     %                                                                      %
     %%%%%%%%%%%%%%%%%%%%%%%%%%%%%%%%%%%%%%%%%%%%%%%%%%%%%%%%%%%%%%%%%%%%%%%%


     Carrying out vdW-DF run using the following parameters:
     Nqs    =  20  Npoints =  1024  r_max =  100.000
     q_mesh =  0.00001000  0.04494208  0.09755937  0.15916263
               0.23128650  0.31572767  0.41458969  0.53033537
               0.66584808  0.82450364  1.01025438  1.22772762
               1.48234092  1.78043706  2.12944203  2.53805004
               3.01644009  3.57652955  4.23227104  5.00000000


     -----------------------------------------------
     Non-local corr. energy    =       2.21504319 Ry
     -----------------------------------------------

     Starting wfcs are   70 randomized atomic wfcs
     Checking if some PAW data can be deallocated... 
       PAW data deallocated on   90 nodes for type:  1
       PAW data deallocated on   56 nodes for type:  3

     total cpu time spent up to now is        5.0 secs

     Self-consistent Calculation

     iteration #  1     ecut=   120.00 Ry     beta= 0.70
     Davidson diagonalization with overlap

---- Real-time Memory Report at c_bands before calling an iterative solver
           204 MiB given to the printing process from OS
             0 MiB allocation reported by mallinfo(arena+hblkhd)
       1938262 MiB available memory on the node where the printing process lives
------------------
     ethr =  1.00E-02,  avg # of iterations =  2.0

     negative rho (up, down):  5.003E-07 0.000E+00


     -----------------------------------------------
     Non-local corr. energy    =       2.35837610 Ry
     -----------------------------------------------


     total cpu time spent up to now is       14.0 secs

     total energy              =   -2467.98702936 Ry
     estimated scf accuracy    <       4.46967513 Ry

     iteration #  2     ecut=   120.00 Ry     beta= 0.70
     Davidson diagonalization with overlap

---- Real-time Memory Report at c_bands before calling an iterative solver
           218 MiB given to the printing process from OS
             0 MiB allocation reported by mallinfo(arena+hblkhd)
       1937221 MiB available memory on the node where the printing process lives
------------------
     ethr =  3.85E-03,  avg # of iterations =  5.0


     -----------------------------------------------
     Non-local corr. energy    =       2.27849999 Ry
     -----------------------------------------------


     total cpu time spent up to now is       29.3 secs

     total energy              =   -2468.31829495 Ry
     estimated scf accuracy    <      10.49141128 Ry

     iteration #  3     ecut=   120.00 Ry     beta= 0.70
     Davidson diagonalization with overlap

---- Real-time Memory Report at c_bands before calling an iterative solver
           222 MiB given to the printing process from OS
             0 MiB allocation reported by mallinfo(arena+hblkhd)
       1937168 MiB available memory on the node where the printing process lives
------------------
     ethr =  3.85E-03,  avg # of iterations =  4.0


     -----------------------------------------------
     Non-local corr. energy    =       2.29070786 Ry
     -----------------------------------------------


     total cpu time spent up to now is       42.0 secs

     total energy              =   -2470.38071473 Ry
     estimated scf accuracy    <       0.12507796 Ry

     iteration #  4     ecut=   120.00 Ry     beta= 0.70
     Davidson diagonalization with overlap

---- Real-time Memory Report at c_bands before calling an iterative solver
           224 MiB given to the printing process from OS
             0 MiB allocation reported by mallinfo(arena+hblkhd)
       1937131 MiB available memory on the node where the printing process lives
------------------
     ethr =  1.08E-04,  avg # of iterations =  4.8


     -----------------------------------------------
     Non-local corr. energy    =       2.30580805 Ry
     -----------------------------------------------


     total cpu time spent up to now is       53.9 secs

     total energy              =   -2470.41656447 Ry
     estimated scf accuracy    <       0.04013712 Ry

     iteration #  5     ecut=   120.00 Ry     beta= 0.70
     Davidson diagonalization with overlap

---- Real-time Memory Report at c_bands before calling an iterative solver
           226 MiB given to the printing process from OS
             0 MiB allocation reported by mallinfo(arena+hblkhd)
       1937101 MiB available memory on the node where the printing process lives
------------------
     ethr =  3.46E-05,  avg # of iterations =  4.4


     -----------------------------------------------
     Non-local corr. energy    =       2.31130710 Ry
     -----------------------------------------------


     total cpu time spent up to now is       65.2 secs

     total energy              =   -2470.41974460 Ry
     estimated scf accuracy    <       0.01199762 Ry

     iteration #  6     ecut=   120.00 Ry     beta= 0.70
     Davidson diagonalization with overlap

---- Real-time Memory Report at c_bands before calling an iterative solver
           227 MiB given to the printing process from OS
             0 MiB allocation reported by mallinfo(arena+hblkhd)
       1937074 MiB available memory on the node where the printing process lives
------------------
     ethr =  1.03E-05,  avg # of iterations =  4.9


     -----------------------------------------------
     Non-local corr. energy    =       2.31199012 Ry
     -----------------------------------------------


     total cpu time spent up to now is       77.5 secs

     total energy              =   -2470.42308144 Ry
     estimated scf accuracy    <       0.00235456 Ry

     iteration #  7     ecut=   120.00 Ry     beta= 0.70
     Davidson diagonalization with overlap

---- Real-time Memory Report at c_bands before calling an iterative solver
           228 MiB given to the printing process from OS
             0 MiB allocation reported by mallinfo(arena+hblkhd)
       1937060 MiB available memory on the node where the printing process lives
------------------
     ethr =  2.03E-06,  avg # of iterations =  4.4


     -----------------------------------------------
     Non-local corr. energy    =       2.31185885 Ry
     -----------------------------------------------


     total cpu time spent up to now is       88.3 secs

     total energy              =   -2470.42334668 Ry
     estimated scf accuracy    <       0.00026434 Ry

     iteration #  8     ecut=   120.00 Ry     beta= 0.70
     Davidson diagonalization with overlap

---- Real-time Memory Report at c_bands before calling an iterative solver
           229 MiB given to the printing process from OS
             0 MiB allocation reported by mallinfo(arena+hblkhd)
       1937040 MiB available memory on the node where the printing process lives
------------------
     ethr =  2.28E-07,  avg # of iterations =  4.2


     -----------------------------------------------
     Non-local corr. energy    =       2.31230547 Ry
     -----------------------------------------------


     total cpu time spent up to now is      101.1 secs

     total energy              =   -2470.42340256 Ry
     estimated scf accuracy    <       0.00011360 Ry

     iteration #  9     ecut=   120.00 Ry     beta= 0.70
     Davidson diagonalization with overlap

---- Real-time Memory Report at c_bands before calling an iterative solver
           229 MiB given to the printing process from OS
             0 MiB allocation reported by mallinfo(arena+hblkhd)
       1937025 MiB available memory on the node where the printing process lives
------------------
     ethr =  9.79E-08,  avg # of iterations =  4.3


     -----------------------------------------------
     Non-local corr. energy    =       2.31231768 Ry
     -----------------------------------------------


     total cpu time spent up to now is      112.5 secs

     total energy              =   -2470.42342818 Ry
     estimated scf accuracy    <       0.00001382 Ry

     iteration # 10     ecut=   120.00 Ry     beta= 0.70
     Davidson diagonalization with overlap

---- Real-time Memory Report at c_bands before calling an iterative solver
           230 MiB given to the printing process from OS
             0 MiB allocation reported by mallinfo(arena+hblkhd)
       1936995 MiB available memory on the node where the printing process lives
------------------
     ethr =  1.19E-08,  avg # of iterations =  4.5


     -----------------------------------------------
     Non-local corr. energy    =       2.31227240 Ry
     -----------------------------------------------


     total cpu time spent up to now is      124.5 secs

     total energy              =   -2470.42342816 Ry
     estimated scf accuracy    <       0.00001549 Ry

     iteration # 11     ecut=   120.00 Ry     beta= 0.70
     Davidson diagonalization with overlap

---- Real-time Memory Report at c_bands before calling an iterative solver
           230 MiB given to the printing process from OS
             0 MiB allocation reported by mallinfo(arena+hblkhd)
       1936973 MiB available memory on the node where the printing process lives
------------------
     ethr =  1.19E-08,  avg # of iterations =  3.0


     -----------------------------------------------
     Non-local corr. energy    =       2.31222999 Ry
     -----------------------------------------------


     total cpu time spent up to now is      134.1 secs

     total energy              =   -2470.42342839 Ry
     estimated scf accuracy    <       0.00000243 Ry

     iteration # 12     ecut=   120.00 Ry     beta= 0.70
     Davidson diagonalization with overlap

---- Real-time Memory Report at c_bands before calling an iterative solver
           230 MiB given to the printing process from OS
             0 MiB allocation reported by mallinfo(arena+hblkhd)
       1936965 MiB available memory on the node where the printing process lives
------------------
     ethr =  2.09E-09,  avg # of iterations =  4.8


     -----------------------------------------------
     Non-local corr. energy    =       2.31223101 Ry
     -----------------------------------------------


     total cpu time spent up to now is      146.6 secs

     total energy              =   -2470.42342917 Ry
     estimated scf accuracy    <       0.00000041 Ry

     iteration # 13     ecut=   120.00 Ry     beta= 0.70
     Davidson diagonalization with overlap

---- Real-time Memory Report at c_bands before calling an iterative solver
           231 MiB given to the printing process from OS
             0 MiB allocation reported by mallinfo(arena+hblkhd)
       1936951 MiB available memory on the node where the printing process lives
------------------
     ethr =  3.54E-10,  avg # of iterations =  2.9


     -----------------------------------------------
     Non-local corr. energy    =       2.31222781 Ry
     -----------------------------------------------


     total cpu time spent up to now is      155.9 secs

     total energy              =   -2470.42342916 Ry
     estimated scf accuracy    <       0.00000011 Ry

     iteration # 14     ecut=   120.00 Ry     beta= 0.70
     Davidson diagonalization with overlap

---- Real-time Memory Report at c_bands before calling an iterative solver
           232 MiB given to the printing process from OS
             0 MiB allocation reported by mallinfo(arena+hblkhd)
       1936925 MiB available memory on the node where the printing process lives
------------------
     ethr =  9.47E-11,  avg # of iterations =  4.9


     -----------------------------------------------
     Non-local corr. energy    =       2.31222714 Ry
     -----------------------------------------------


     total cpu time spent up to now is      167.5 secs

     End of self-consistent calculation

          k = 0.0000 0.0000 0.0000 ( 36041 PWs)   bands (ev):

   -17.1034 -17.0531 -17.0101 -16.9583 -12.3262 -12.3260 -12.1170 -12.1117
   -11.7858 -11.7857 -11.7076 -11.7076 -11.7074 -11.7074  -8.8314  -8.7331
    -7.2106  -7.1692  -6.7221  -6.7220  -6.6510  -6.4762  -2.3569  -2.2943
    -2.2943  -2.1810  -2.1810  -2.1701  -2.0890  -2.0890  -1.9670  -1.9670
    -1.9007  -1.8510   4.1998   4.1998   4.2142   4.2142   5.3885   5.4361
     5.4506   5.9240   6.9938   7.0280   7.2276   7.2276   7.3693   7.3693
     7.4379   7.9145   7.9869   7.9869   7.9899   7.9899   8.1382   8.1382
     8.1931   8.1931

     occupation numbers 
     1.0000   1.0000   1.0000   1.0000   1.0000   1.0000   1.0000   1.0000
     1.0000   1.0000   1.0000   1.0000   1.0000   1.0000   1.0000   1.0000
     1.0000   1.0000   1.0000   1.0000   1.0000   1.0000   1.0000   1.0000
     1.0000   1.0000   1.0000   1.0000   1.0000   1.0000   1.0000   1.0000
     1.0000   1.0000   1.0000   1.0000   1.0000   1.0000   1.0000   1.0000
     1.0000   1.0000   1.0000   1.0000   1.0000   1.0000   1.0000   1.0000
     1.0000   1.0000   1.0000   1.0000   1.0000   1.0000   1.0000   1.0000
     1.0000   1.0000

          k = 0.0000 0.0000 0.0314 ( 36065 PWs)   bands (ev):

   -17.1026 -17.0557 -17.0075 -16.9591 -12.3262 -12.3260 -12.1168 -12.1118
   -11.7858 -11.7857 -11.7076 -11.7076 -11.7074 -11.7074  -8.8292  -8.7357
    -7.2090  -7.1698  -6.7221  -6.7220  -6.6472  -6.4808  -2.3522  -2.2926
    -2.2926  -2.1870  -2.1870  -2.1746  -2.0828  -2.0828  -1.9690  -1.9690
    -1.8995  -1.8522   4.2002   4.2002   4.2139   4.2139   5.3863   5.4061
     5.4908   5.9158   6.9946   7.0271   7.2306   7.2306   7.3652   7.3652
     7.4468   7.8996   7.9880   7.9880   7.9917   7.9917   8.1383   8.1383
     8.1911   8.1911

     occupation numbers 
     1.0000   1.0000   1.0000   1.0000   1.0000   1.0000   1.0000   1.0000
     1.0000   1.0000   1.0000   1.0000   1.0000   1.0000   1.0000   1.0000
     1.0000   1.0000   1.0000   1.0000   1.0000   1.0000   1.0000   1.0000
     1.0000   1.0000   1.0000   1.0000   1.0000   1.0000   1.0000   1.0000
     1.0000   1.0000   1.0000   1.0000   1.0000   1.0000   1.0000   1.0000
     1.0000   1.0000   1.0000   1.0000   1.0000   1.0000   1.0000   1.0000
     1.0000   1.0000   1.0000   1.0000   1.0000   1.0000   1.0000   1.0000
     1.0000   1.0000

          k = 0.0000 0.0000 0.0628 ( 36053 PWs)   bands (ev):

   -17.1003 -17.0619 -17.0012 -16.9616 -12.3262 -12.3260 -12.1165 -12.1122
   -11.7858 -11.7857 -11.7076 -11.7076 -11.7074 -11.7074  -8.8228  -8.7433
    -7.2048  -7.1716  -6.7221  -6.7220  -6.6358  -6.4941  -2.3387  -2.2874
    -2.2874  -2.2014  -2.2014  -2.1877  -2.0678  -2.0678  -1.9748  -1.9748
    -1.8959  -1.8557   4.2012   4.2012   4.2129   4.2129   5.3802   5.3803
     5.5463   5.8916   6.9970   7.0246   7.2394   7.2394   7.3535   7.3535
     7.4735   7.8576   7.9912   7.9912   7.9960   7.9960   8.1392   8.1392
     8.1854   8.1854

     occupation numbers 
     1.0000   1.0000   1.0000   1.0000   1.0000   1.0000   1.0000   1.0000
     1.0000   1.0000   1.0000   1.0000   1.0000   1.0000   1.0000   1.0000
     1.0000   1.0000   1.0000   1.0000   1.0000   1.0000   1.0000   1.0000
     1.0000   1.0000   1.0000   1.0000   1.0000   1.0000   1.0000   1.0000
     1.0000   1.0000   1.0000   1.0000   1.0000   1.0000   1.0000   1.0000
     1.0000   1.0000   1.0000   1.0000   1.0000   1.0000   1.0000   1.0000
     1.0000   1.0000   1.0000   1.0000   1.0000   1.0000   1.0000   1.0000
     1.0000   1.0000

          k = 0.0000 0.0000 0.0942 ( 36009 PWs)   bands (ev):

   -17.0964 -17.0696 -16.9934 -16.9656 -12.3262 -12.3260 -12.1159 -12.1128
   -11.7858 -11.7857 -11.7076 -11.7076 -11.7074 -11.7074  -8.8126  -8.7550
    -7.1986  -7.1747  -6.7221  -6.7220  -6.6178  -6.5147  -2.3178  -2.2788
    -2.2788  -2.2189  -2.2189  -2.2081  -2.0493  -2.0493  -1.9843  -1.9843
    -1.8903  -1.8611   4.2028   4.2028   4.2112   4.2112   5.3645   5.3719
     5.6087   5.8525   7.0007   7.0208   7.2535   7.2535   7.3361   7.3361
     7.5172   7.7954   7.9957   7.9957   8.0009   8.0009   8.1418   8.1418
     8.1767   8.1767

     occupation numbers 
     1.0000   1.0000   1.0000   1.0000   1.0000   1.0000   1.0000   1.0000
     1.0000   1.0000   1.0000   1.0000   1.0000   1.0000   1.0000   1.0000
     1.0000   1.0000   1.0000   1.0000   1.0000   1.0000   1.0000   1.0000
     1.0000   1.0000   1.0000   1.0000   1.0000   1.0000   1.0000   1.0000
     1.0000   1.0000   1.0000   1.0000   1.0000   1.0000   1.0000   1.0000
     1.0000   1.0000   1.0000   1.0000   1.0000   1.0000   1.0000   1.0000
     1.0000   1.0000   1.0000   1.0000   1.0000   1.0000   1.0000   1.0000
     1.0000   1.0000

          k = 0.0000 0.0000 0.1256 ( 36028 PWs)   bands (ev):

   -17.0912 -17.0774 -16.9853 -16.9711 -12.3262 -12.3260 -12.1151 -12.1135
   -11.7858 -11.7857 -11.7076 -11.7076 -11.7074 -11.7074  -8.7995  -8.7692
    -7.1917  -7.1792  -6.7221  -6.7220  -6.5944  -6.5401  -2.2915  -2.2672
    -2.2672  -2.2366  -2.2366  -2.2339  -2.0305  -2.0305  -1.9971  -1.9971
    -1.8833  -1.8679   4.2048   4.2048   4.2092   4.2092   5.3577   5.3637
     5.6746   5.8008   7.0055   7.0160   7.2718   7.2718   7.3151   7.3151
     7.5760   7.7219   8.0003   8.0003   8.0037   8.0037   8.1473   8.1473
     8.1662   8.1662

     occupation numbers 
     1.0000   1.0000   1.0000   1.0000   1.0000   1.0000   1.0000   1.0000
     1.0000   1.0000   1.0000   1.0000   1.0000   1.0000   1.0000   1.0000
     1.0000   1.0000   1.0000   1.0000   1.0000   1.0000   1.0000   1.0000
     1.0000   1.0000   1.0000   1.0000   1.0000   1.0000   1.0000   1.0000
     1.0000   1.0000   1.0000   1.0000   1.0000   1.0000   1.0000   1.0000
     1.0000   1.0000   1.0000   1.0000   1.0000   1.0000   1.0000   1.0000
     1.0000   1.0000   1.0000   1.0000   1.0000   1.0000   1.0000   1.0000
     1.0000   1.0000

          k = 0.0000 0.0000-0.1571 ( 35984 PWs)   bands (ev):

   -17.0848 -17.0847 -16.9778 -16.9777 -12.3262 -12.3260 -12.1144 -12.1142
   -11.7858 -11.7857 -11.7076 -11.7076 -11.7074 -11.7074  -8.7846  -8.7846
    -7.1851  -7.1849  -6.7221  -6.7220  -6.5677  -6.5675  -2.2626  -2.2626
    -2.2530  -2.2530  -2.2530  -2.2530  -2.0127  -2.0127  -2.0127  -2.0127
    -1.8756  -1.8756   4.2070   4.2070   4.2070   4.2070   5.3581   5.3582
     5.7401   5.7402   7.0107   7.0107   7.2929   7.2929   7.2929   7.2929
     7.6462   7.6462   8.0034   8.0034   8.0035   8.0035   8.1558   8.1558
     8.1559   8.1559

     occupation numbers 
     1.0000   1.0000   1.0000   1.0000   1.0000   1.0000   1.0000   1.0000
     1.0000   1.0000   1.0000   1.0000   1.0000   1.0000   1.0000   1.0000
     1.0000   1.0000   1.0000   1.0000   1.0000   1.0000   1.0000   1.0000
     1.0000   1.0000   1.0000   1.0000   1.0000   1.0000   1.0000   1.0000
     1.0000   1.0000   1.0000   1.0000   1.0000   1.0000   1.0000   1.0000
     1.0000   1.0000   1.0000   1.0000   1.0000   1.0000   1.0000   1.0000
     1.0000   1.0000   1.0000   1.0000   1.0000   1.0000   1.0000   1.0000
     1.0000   1.0000

          k = 0.0000 0.1000 0.0000 ( 36034 PWs)   bands (ev):

   -17.0970 -17.0476 -17.0081 -16.9573 -12.3109 -12.3108 -12.1088 -12.1038
   -11.7870 -11.7868 -11.7084 -11.7082 -11.7075 -11.7073  -8.8150  -8.7174
    -7.2220  -7.1822  -6.8092  -6.8015  -6.6550  -6.4910  -2.3385  -2.2794
    -2.2756  -2.2030  -2.1900  -2.1693  -2.0832  -2.0476  -1.9852  -1.9652
    -1.9218  -1.8539   3.9243   3.9588   4.2114   4.2295   5.4440   5.6803
     5.7997   5.9241   6.9899   6.9926   7.1906   7.2630   7.3354   7.3362
     7.3799   7.7014   7.9239   7.9321   8.0321   8.0590   8.0871   8.1169
     8.1503   8.1821

     occupation numbers 
     1.0000   1.0000   1.0000   1.0000   1.0000   1.0000   1.0000   1.0000
     1.0000   1.0000   1.0000   1.0000   1.0000   1.0000   1.0000   1.0000
     1.0000   1.0000   1.0000   1.0000   1.0000   1.0000   1.0000   1.0000
     1.0000   1.0000   1.0000   1.0000   1.0000   1.0000   1.0000   1.0000
     1.0000   1.0000   1.0000   1.0000   1.0000   1.0000   1.0000   1.0000
     1.0000   1.0000   1.0000   1.0000   1.0000   1.0000   1.0000   1.0000
     1.0000   1.0000   1.0000   1.0000   1.0000   1.0000   1.0000   1.0000
     1.0000   1.0000

          k = 0.0000 0.1000 0.0314 ( 36035 PWs)   bands (ev):

   -17.0963 -17.0502 -17.0055 -16.9581 -12.3109 -12.3108 -12.1087 -12.1039
   -11.7870 -11.7868 -11.7084 -11.7082 -11.7075 -11.7073  -8.8128  -8.7200
    -7.2205  -7.1828  -6.8088  -6.8016  -6.6515  -6.4955  -2.3357  -2.2777
    -2.2726  -2.2137  -2.1831  -2.1753  -2.0771  -2.0479  -1.9879  -1.9671
    -1.9192  -1.8552   3.9252   3.9580   4.2119   4.2290   5.4494   5.6738
     5.8031   5.9220   6.9900   6.9925   7.1937   7.2562   7.3294   7.3319
     7.3959   7.6996   7.9252   7.9339   8.0323   8.0607   8.0874   8.1143
     8.1482   8.1764

     occupation numbers 
     1.0000   1.0000   1.0000   1.0000   1.0000   1.0000   1.0000   1.0000
     1.0000   1.0000   1.0000   1.0000   1.0000   1.0000   1.0000   1.0000
     1.0000   1.0000   1.0000   1.0000   1.0000   1.0000   1.0000   1.0000
     1.0000   1.0000   1.0000   1.0000   1.0000   1.0000   1.0000   1.0000
     1.0000   1.0000   1.0000   1.0000   1.0000   1.0000   1.0000   1.0000
     1.0000   1.0000   1.0000   1.0000   1.0000   1.0000   1.0000   1.0000
     1.0000   1.0000   1.0000   1.0000   1.0000   1.0000   1.0000   1.0000
     1.0000   1.0000

          k = 0.0000 0.1000 0.0628 ( 36040 PWs)   bands (ev):

   -17.0940 -17.0564 -16.9992 -16.9605 -12.3109 -12.3108 -12.1083 -12.1043
   -11.7870 -11.7868 -11.7084 -11.7082 -11.7075 -11.7073  -8.8064  -8.7276
    -7.2165  -7.1846  -6.8078  -6.8018  -6.6413  -6.5082  -2.3278  -2.2726
    -2.2637  -2.2308  -2.1894  -2.1782  -2.0624  -2.0476  -1.9951  -1.9727
    -1.9125  -1.8591   3.9278   3.9557   4.2131   4.2277   5.4653   5.6554
     5.8130   5.9154   6.9904   6.9921   7.2027   7.2446   7.3131   7.3198
     7.4347   7.6917   7.9287   7.9381   8.0338   8.0657   8.0888   8.1064
     8.1420   8.1614

     occupation numbers 
     1.0000   1.0000   1.0000   1.0000   1.0000   1.0000   1.0000   1.0000
     1.0000   1.0000   1.0000   1.0000   1.0000   1.0000   1.0000   1.0000
     1.0000   1.0000   1.0000   1.0000   1.0000   1.0000   1.0000   1.0000
     1.0000   1.0000   1.0000   1.0000   1.0000   1.0000   1.0000   1.0000
     1.0000   1.0000   1.0000   1.0000   1.0000   1.0000   1.0000   1.0000
     1.0000   1.0000   1.0000   1.0000   1.0000   1.0000   1.0000   1.0000
     1.0000   1.0000   1.0000   1.0000   1.0000   1.0000   1.0000   1.0000
     1.0000   1.0000

          k = 0.0000 0.1000 0.0942 ( 36038 PWs)   bands (ev):

   -17.0902 -17.0640 -16.9915 -16.9644 -12.3109 -12.3108 -12.1077 -12.1048
   -11.7870 -11.7868 -11.7084 -11.7082 -11.7075 -11.7073  -8.7963  -8.7391
    -7.2106  -7.1877  -6.8065  -6.8023  -6.6248  -6.5278  -2.3159  -2.2644
    -2.2494  -2.2491  -2.2064  -2.1815  -2.0445  -2.0445  -2.0050  -1.9818
    -1.9034  -1.8654   3.9317   3.9520   4.2151   4.2257   5.4901   5.6275
     5.8283   5.9038   6.9908   6.9918   7.2170   7.2379   7.2913   7.3017
     7.4850   7.6726   7.9338   7.9424   8.0389   8.0742   8.0924   8.0943
     8.1325   8.1413

     occupation numbers 
     1.0000   1.0000   1.0000   1.0000   1.0000   1.0000   1.0000   1.0000
     1.0000   1.0000   1.0000   1.0000   1.0000   1.0000   1.0000   1.0000
     1.0000   1.0000   1.0000   1.0000   1.0000   1.0000   1.0000   1.0000
     1.0000   1.0000   1.0000   1.0000   1.0000   1.0000   1.0000   1.0000
     1.0000   1.0000   1.0000   1.0000   1.0000   1.0000   1.0000   1.0000
     1.0000   1.0000   1.0000   1.0000   1.0000   1.0000   1.0000   1.0000
     1.0000   1.0000   1.0000   1.0000   1.0000   1.0000   1.0000   1.0000
     1.0000   1.0000

          k = 0.0000 0.1000 0.1256 ( 36022 PWs)   bands (ev):

   -17.0851 -17.0717 -16.9836 -16.9697 -12.3109 -12.3108 -12.1071 -12.1055
   -11.7870 -11.7868 -11.7084 -11.7082 -11.7075 -11.7073  -8.7833  -8.7532
    -7.2041  -7.1921  -6.8051  -6.8029  -6.6030  -6.5520  -2.3013  -2.2674
    -2.2532  -2.2310  -2.2235  -2.1934  -2.0375  -2.0263  -2.0162  -1.9942
    -1.8933  -1.8736   3.9367   3.9473   4.2176   4.2232   5.5217   5.5937
     5.8474   5.8875   6.9911   6.9916   7.2357   7.2399   7.2690   7.2801
     7.5398   7.6392   7.9392   7.9446   8.0489   8.0788   8.0864   8.0993
     8.1205   8.1210

     occupation numbers 
     1.0000   1.0000   1.0000   1.0000   1.0000   1.0000   1.0000   1.0000
     1.0000   1.0000   1.0000   1.0000   1.0000   1.0000   1.0000   1.0000
     1.0000   1.0000   1.0000   1.0000   1.0000   1.0000   1.0000   1.0000
     1.0000   1.0000   1.0000   1.0000   1.0000   1.0000   1.0000   1.0000
     1.0000   1.0000   1.0000   1.0000   1.0000   1.0000   1.0000   1.0000
     1.0000   1.0000   1.0000   1.0000   1.0000   1.0000   1.0000   1.0000
     1.0000   1.0000   1.0000   1.0000   1.0000   1.0000   1.0000   1.0000
     1.0000   1.0000

          k = 0.0000 0.1000-0.1571 ( 36014 PWs)   bands (ev):

   -17.0789 -17.0788 -16.9762 -16.9762 -12.3109 -12.3108 -12.1064 -12.1062
   -11.7870 -11.7868 -11.7084 -11.7082 -11.7075 -11.7073  -8.7685  -8.7685
    -7.1977  -7.1976  -6.8039  -6.8039  -6.5780  -6.5779  -2.2850  -2.2850
    -2.2394  -2.2394  -2.2112  -2.2112  -2.0276  -2.0275  -2.0092  -2.0092
    -1.8831  -1.8831   3.9420   3.9421   4.2204   4.2204   5.5573   5.5573
     5.8679   5.8679   6.9914   6.9914   7.2508   7.2508   7.2573   7.2573
     7.5932   7.5932   7.9432   7.9434   8.0630   8.0631   8.1017   8.1018
     8.1092   8.1093

     occupation numbers 
     1.0000   1.0000   1.0000   1.0000   1.0000   1.0000   1.0000   1.0000
     1.0000   1.0000   1.0000   1.0000   1.0000   1.0000   1.0000   1.0000
     1.0000   1.0000   1.0000   1.0000   1.0000   1.0000   1.0000   1.0000
     1.0000   1.0000   1.0000   1.0000   1.0000   1.0000   1.0000   1.0000
     1.0000   1.0000   1.0000   1.0000   1.0000   1.0000   1.0000   1.0000
     1.0000   1.0000   1.0000   1.0000   1.0000   1.0000   1.0000   1.0000
     1.0000   1.0000   1.0000   1.0000   1.0000   1.0000   1.0000   1.0000
     1.0000   1.0000

          k = 0.0000 0.2000 0.0000 ( 36088 PWs)   bands (ev):

   -17.0795 -17.0324 -17.0036 -16.9554 -12.2763 -12.2761 -12.0808 -12.0767
   -11.7900 -11.7899 -11.7106 -11.7104 -11.7072 -11.7071  -8.7590  -8.6642
    -7.2517  -7.2170  -7.0686  -7.0407  -6.6421  -6.5095  -2.2861  -2.2447
    -2.2383  -2.2280  -2.2096  -2.1370  -2.0693  -2.0329  -1.9905  -1.9789
    -1.9621  -1.8663   3.5012   3.5534   4.2418   4.2677   5.4705   5.9258
     6.1481   6.3884   6.7906   6.9120   7.1007   7.2519   7.2631   7.3444
     7.4154   7.5535   7.7666   7.7844   7.8146   7.9585   7.9648   8.0384
     8.1664   8.3323

     occupation numbers 
     1.0000   1.0000   1.0000   1.0000   1.0000   1.0000   1.0000   1.0000
     1.0000   1.0000   1.0000   1.0000   1.0000   1.0000   1.0000   1.0000
     1.0000   1.0000   1.0000   1.0000   1.0000   1.0000   1.0000   1.0000
     1.0000   1.0000   1.0000   1.0000   1.0000   1.0000   1.0000   1.0000
     1.0000   1.0000   1.0000   1.0000   1.0000   1.0000   1.0000   1.0000
     1.0000   1.0000   1.0000   1.0000   1.0000   1.0000   1.0000   1.0000
     1.0000   1.0000   1.0000   1.0000   1.0000   1.0000   1.0000   1.0000
     1.0000   1.0000

          k = 0.0000 0.2000 0.0314 ( 36077 PWs)   bands (ev):

   -17.0788 -17.0352 -17.0007 -16.9561 -12.2763 -12.2761 -12.0807 -12.0768
   -11.7900 -11.7899 -11.7106 -11.7104 -11.7072 -11.7071  -8.7569  -8.6668
    -7.2506  -7.2177  -7.0675  -7.0410  -6.6393  -6.5132  -2.2886  -2.2497
    -2.2367  -2.2214  -2.2045  -2.1429  -2.0632  -2.0375  -1.9937  -1.9730
    -1.9638  -1.8684   3.5028   3.5525   4.2424   4.2670   5.4776   5.9007
     6.1679   6.3866   6.7926   6.9075   7.1037   7.2472   7.2581   7.3243
     7.4392   7.5625   7.7682   7.7862   7.8144   7.9591   7.9600   8.0359
     8.1690   8.3266

     occupation numbers 
     1.0000   1.0000   1.0000   1.0000   1.0000   1.0000   1.0000   1.0000
     1.0000   1.0000   1.0000   1.0000   1.0000   1.0000   1.0000   1.0000
     1.0000   1.0000   1.0000   1.0000   1.0000   1.0000   1.0000   1.0000
     1.0000   1.0000   1.0000   1.0000   1.0000   1.0000   1.0000   1.0000
     1.0000   1.0000   1.0000   1.0000   1.0000   1.0000   1.0000   1.0000
     1.0000   1.0000   1.0000   1.0000   1.0000   1.0000   1.0000   1.0000
     1.0000   1.0000   1.0000   1.0000   1.0000   1.0000   1.0000   1.0000
     1.0000   1.0000

          k = 0.0000 0.2000 0.0628 ( 36060 PWs)   bands (ev):

   -17.0767 -17.0415 -16.9944 -16.9583 -12.2762 -12.2761 -12.0804 -12.0771
   -11.7900 -11.7899 -11.7106 -11.7104 -11.7072 -11.7071  -8.7507  -8.6741
    -7.2475  -7.2197  -7.0645  -7.0420  -6.6312  -6.5237  -2.2929  -2.2601
    -2.2322  -2.2058  -2.1939  -2.1563  -2.0494  -2.0468  -2.0031  -1.9688
    -1.9596  -1.8744   3.5074   3.5497   4.2442   4.2652   5.4988   5.8432
     6.2100   6.3809   6.7985   6.8949   7.1128   7.2342   7.2468   7.2922
     7.4819   7.5834   7.7727   7.7905   7.8153   7.9459   7.9614   8.0286
     8.1769   8.3108

     occupation numbers 
     1.0000   1.0000   1.0000   1.0000   1.0000   1.0000   1.0000   1.0000
     1.0000   1.0000   1.0000   1.0000   1.0000   1.0000   1.0000   1.0000
     1.0000   1.0000   1.0000   1.0000   1.0000   1.0000   1.0000   1.0000
     1.0000   1.0000   1.0000   1.0000   1.0000   1.0000   1.0000   1.0000
     1.0000   1.0000   1.0000   1.0000   1.0000   1.0000   1.0000   1.0000
     1.0000   1.0000   1.0000   1.0000   1.0000   1.0000   1.0000   1.0000
     1.0000   1.0000   1.0000   1.0000   1.0000   1.0000   1.0000   1.0000
     1.0000   1.0000

          k = 0.0000 0.2000 0.0942 ( 36063 PWs)   bands (ev):

   -17.0733 -17.0488 -16.9869 -16.9619 -12.2762 -12.2761 -12.0800 -12.0776
   -11.7900 -11.7899 -11.7106 -11.7104 -11.7072 -11.7071  -8.7409  -8.6853
    -7.2430  -7.2230  -7.0602  -7.0439  -6.6181  -6.5398  -2.2951  -2.2711
    -2.2248  -2.1880  -2.1827  -2.1721  -2.0547  -2.0330  -2.0174  -1.9768
    -1.9435  -1.8839   3.5143   3.5450   4.2471   4.2623   5.5336   5.7743
     6.2550   6.3702   6.8082   6.8770   7.1272   7.2149   7.2360   7.2643
     7.5259   7.6027   7.7793   7.7945   7.8217   7.9236   7.9668   8.0173
     8.1903   8.2874

     occupation numbers 
     1.0000   1.0000   1.0000   1.0000   1.0000   1.0000   1.0000   1.0000
     1.0000   1.0000   1.0000   1.0000   1.0000   1.0000   1.0000   1.0000
     1.0000   1.0000   1.0000   1.0000   1.0000   1.0000   1.0000   1.0000
     1.0000   1.0000   1.0000   1.0000   1.0000   1.0000   1.0000   1.0000
     1.0000   1.0000   1.0000   1.0000   1.0000   1.0000   1.0000   1.0000
     1.0000   1.0000   1.0000   1.0000   1.0000   1.0000   1.0000   1.0000
     1.0000   1.0000   1.0000   1.0000   1.0000   1.0000   1.0000   1.0000
     1.0000   1.0000

          k = 0.0000 0.2000 0.1256 ( 36046 PWs)   bands (ev):

   -17.0686 -17.0561 -16.9795 -16.9667 -12.2762 -12.2761 -12.0794 -12.0781
   -11.7900 -11.7899 -11.7106 -11.7104 -11.7072 -11.7071  -8.7282  -8.6990
    -7.2377  -7.2273  -7.0553  -7.0467  -6.6007  -6.5595  -2.2937  -2.2811
    -2.2146  -2.1877  -2.1744  -2.1736  -2.0562  -2.0340  -2.0165  -1.9878
    -1.9269  -1.8962   3.5225   3.5386   4.2506   4.2586   5.5807   5.7042
     6.2953   6.3530   6.8215   6.8571   7.1463   7.1921   7.2305   7.2441
     7.5650   7.6079   7.7865   7.7955   7.8384   7.8953   7.9762   8.0035
     8.2093   8.2603

     occupation numbers 
     1.0000   1.0000   1.0000   1.0000   1.0000   1.0000   1.0000   1.0000
     1.0000   1.0000   1.0000   1.0000   1.0000   1.0000   1.0000   1.0000
     1.0000   1.0000   1.0000   1.0000   1.0000   1.0000   1.0000   1.0000
     1.0000   1.0000   1.0000   1.0000   1.0000   1.0000   1.0000   1.0000
     1.0000   1.0000   1.0000   1.0000   1.0000   1.0000   1.0000   1.0000
     1.0000   1.0000   1.0000   1.0000   1.0000   1.0000   1.0000   1.0000
     1.0000   1.0000   1.0000   1.0000   1.0000   1.0000   1.0000   1.0000
     1.0000   1.0000

          k = 0.0000 0.2000-0.1571 ( 36048 PWs)   bands (ev):

   -17.0628 -17.0628 -16.9727 -16.9726 -12.2762 -12.2761 -12.0788 -12.0787
   -11.7900 -11.7899 -11.7106 -11.7104 -11.7072 -11.7071  -8.7138  -8.7138
    -7.2324  -7.2322  -7.0506  -7.0506  -6.5806  -6.5805  -2.2889  -2.2889
    -2.2022  -2.2021  -2.1697  -2.1696  -2.0486  -2.0486  -2.0012  -2.0012
    -1.9108  -1.9108   3.5309   3.5309   4.2546   4.2546   5.6384   5.6385
     6.3281   6.3282   6.8380   6.8381   7.1685   7.1685   7.2329   7.2329
     7.5942   7.5942   7.7924   7.7926   7.8648   7.8649   7.9890   7.9891
     8.2332   8.2333

     occupation numbers 
     1.0000   1.0000   1.0000   1.0000   1.0000   1.0000   1.0000   1.0000
     1.0000   1.0000   1.0000   1.0000   1.0000   1.0000   1.0000   1.0000
     1.0000   1.0000   1.0000   1.0000   1.0000   1.0000   1.0000   1.0000
     1.0000   1.0000   1.0000   1.0000   1.0000   1.0000   1.0000   1.0000
     1.0000   1.0000   1.0000   1.0000   1.0000   1.0000   1.0000   1.0000
     1.0000   1.0000   1.0000   1.0000   1.0000   1.0000   1.0000   1.0000
     1.0000   1.0000   1.0000   1.0000   1.0000   1.0000   1.0000   1.0000
     1.0000   1.0000

          k = 0.0000 0.3000 0.0000 ( 36074 PWs)   bands (ev):

   -17.0556 -17.0114 -17.0000 -16.9552 -12.2453 -12.2449 -12.0317 -12.0289
   -11.7938 -11.7936 -11.7132 -11.7131 -11.7069 -11.7067  -8.6463  -8.5572
    -7.4312  -7.3870  -7.2875  -7.2615  -6.6178  -6.5229  -2.2693  -2.2251
    -2.2086  -2.1816  -2.1735  -2.0939  -2.0915  -2.0568  -2.0498  -1.9633
    -1.9598  -1.8964   3.1814   3.2316   4.2799   4.3096   5.5246   5.9273
     6.4881   6.5086   6.7104   6.7691   7.0097   7.1510   7.2521   7.3516
     7.5494   7.5687   7.5860   7.6074   7.6785   7.8080   7.8940   7.9191
     8.2362   8.3955

     occupation numbers 
     1.0000   1.0000   1.0000   1.0000   1.0000   1.0000   1.0000   1.0000
     1.0000   1.0000   1.0000   1.0000   1.0000   1.0000   1.0000   1.0000
     1.0000   1.0000   1.0000   1.0000   1.0000   1.0000   1.0000   1.0000
     1.0000   1.0000   1.0000   1.0000   1.0000   1.0000   1.0000   1.0000
     1.0000   1.0000   1.0000   1.0000   1.0000   1.0000   1.0000   1.0000
     1.0000   1.0000   1.0000   1.0000   1.0000   1.0000   1.0000   1.0000
     1.0000   1.0000   1.0000   1.0000   1.0000   1.0000   1.0000   1.0000
     1.0000   1.0000

          k = 0.0000 0.3000 0.0314 ( 36070 PWs)   bands (ev):

   -17.0550 -17.0153 -16.9961 -16.9558 -12.2453 -12.2449 -12.0316 -12.0290
   -11.7938 -11.7936 -11.7132 -11.7131 -11.7069 -11.7067  -8.6443  -8.5595
    -7.4306  -7.3886  -7.2858  -7.2611  -6.6159  -6.5256  -2.2706  -2.2222
    -2.2217  -2.1804  -2.1576  -2.1012  -2.0983  -2.0500  -2.0410  -1.9647
    -1.9625  -1.8996   3.1833   3.2311   4.2806   4.3089   5.5300   5.9078
     6.4888   6.5280   6.6908   6.7792   7.0123   7.1463   7.2531   7.3435
     7.5584   7.5780   7.5881   7.6099   7.6782   7.8084   7.8912   7.9120
     8.2389   8.3907

     occupation numbers 
     1.0000   1.0000   1.0000   1.0000   1.0000   1.0000   1.0000   1.0000
     1.0000   1.0000   1.0000   1.0000   1.0000   1.0000   1.0000   1.0000
     1.0000   1.0000   1.0000   1.0000   1.0000   1.0000   1.0000   1.0000
     1.0000   1.0000   1.0000   1.0000   1.0000   1.0000   1.0000   1.0000
     1.0000   1.0000   1.0000   1.0000   1.0000   1.0000   1.0000   1.0000
     1.0000   1.0000   1.0000   1.0000   1.0000   1.0000   1.0000   1.0000
     1.0000   1.0000   1.0000   1.0000   1.0000   1.0000   1.0000   1.0000
     1.0000   1.0000

          k = 0.0000 0.3000 0.0628 ( 36085 PWs)   bands (ev):

   -17.0532 -17.0221 -16.9893 -16.9576 -12.2453 -12.2450 -12.0314 -12.0292
   -11.7938 -11.7936 -11.7132 -11.7131 -11.7069 -11.7067  -8.6385  -8.5664
    -7.4287  -7.3932  -7.2814  -7.2603  -6.6100  -6.5331  -2.2733  -2.2404
    -2.2145  -2.1766  -2.1368  -2.1116  -2.1087  -2.0365  -2.0232  -1.9707
    -1.9687  -1.9089   3.1888   3.2294   4.2827   4.3068   5.5463   5.8577
     6.4941   6.5748   6.6530   6.7897   7.0201   7.1331   7.2553   7.3243
     7.5803   7.5940   7.6048   7.6158   7.6774   7.8102   7.8829   7.8909
     8.2470   8.3768

     occupation numbers 
     1.0000   1.0000   1.0000   1.0000   1.0000   1.0000   1.0000   1.0000
     1.0000   1.0000   1.0000   1.0000   1.0000   1.0000   1.0000   1.0000
     1.0000   1.0000   1.0000   1.0000   1.0000   1.0000   1.0000   1.0000
     1.0000   1.0000   1.0000   1.0000   1.0000   1.0000   1.0000   1.0000
     1.0000   1.0000   1.0000   1.0000   1.0000   1.0000   1.0000   1.0000
     1.0000   1.0000   1.0000   1.0000   1.0000   1.0000   1.0000   1.0000
     1.0000   1.0000   1.0000   1.0000   1.0000   1.0000   1.0000   1.0000
     1.0000   1.0000

          k = 0.0000 0.3000 0.0942 ( 36074 PWs)   bands (ev):

   -17.0502 -17.0290 -16.9823 -16.9606 -12.2453 -12.2450 -12.0311 -12.0295
   -11.7938 -11.7936 -11.7132 -11.7131 -11.7069 -11.7067  -8.6292  -8.5769
    -7.4253  -7.3997  -7.2753  -7.2600  -6.6007  -6.5447  -2.2755  -2.2558
    -2.2035  -2.1704  -2.1434  -2.1257  -2.0877  -2.0220  -2.0029  -1.9845
    -1.9753  -1.9233   3.1966   3.2261   4.2860   4.3035   5.5741   5.7930
     6.5049   6.6128   6.6328   6.7877   7.0327   7.1140   7.2578   7.3023
     7.6026   7.6061   7.6214   7.6421   7.6788   7.8151   7.8571   7.8701
     8.2609   8.3558

     occupation numbers 
     1.0000   1.0000   1.0000   1.0000   1.0000   1.0000   1.0000   1.0000
     1.0000   1.0000   1.0000   1.0000   1.0000   1.0000   1.0000   1.0000
     1.0000   1.0000   1.0000   1.0000   1.0000   1.0000   1.0000   1.0000
     1.0000   1.0000   1.0000   1.0000   1.0000   1.0000   1.0000   1.0000
     1.0000   1.0000   1.0000   1.0000   1.0000   1.0000   1.0000   1.0000
     1.0000   1.0000   1.0000   1.0000   1.0000   1.0000   1.0000   1.0000
     1.0000   1.0000   1.0000   1.0000   1.0000   1.0000   1.0000   1.0000
     1.0000   1.0000

          k = 0.0000 0.3000 0.1256 ( 36082 PWs)   bands (ev):

   -17.0462 -17.0354 -16.9757 -16.9648 -12.2452 -12.2450 -12.0307 -12.0299
   -11.7938 -11.7936 -11.7132 -11.7131 -11.7069 -11.7067  -8.6173  -8.5899
    -7.4204  -7.4070  -7.2692  -7.2611  -6.5883  -6.5588  -2.2759  -2.2667
    -2.1902  -2.1620  -2.1593  -2.1393  -2.0574  -2.0080  -2.0039  -1.9842
    -1.9820  -1.9412   3.2055   3.2210   4.2901   4.2993   5.6138   5.7262
     6.5217   6.5760   6.6896   6.7702   7.0496   7.0920   7.2618   7.2833
     7.6119   7.6232   7.6293   7.6565   7.7090   7.8127   7.8246   7.8545
     8.2804   8.3306

     occupation numbers 
     1.0000   1.0000   1.0000   1.0000   1.0000   1.0000   1.0000   1.0000
     1.0000   1.0000   1.0000   1.0000   1.0000   1.0000   1.0000   1.0000
     1.0000   1.0000   1.0000   1.0000   1.0000   1.0000   1.0000   1.0000
     1.0000   1.0000   1.0000   1.0000   1.0000   1.0000   1.0000   1.0000
     1.0000   1.0000   1.0000   1.0000   1.0000   1.0000   1.0000   1.0000
     1.0000   1.0000   1.0000   1.0000   1.0000   1.0000   1.0000   1.0000
     1.0000   1.0000   1.0000   1.0000   1.0000   1.0000   1.0000   1.0000
     1.0000   1.0000

          k = 0.0000 0.3000-0.1571 ( 36070 PWs)   bands (ev):

   -17.0413 -17.0412 -16.9699 -16.9698 -12.2452 -12.2451 -12.0304 -12.0302
   -11.7938 -11.7936 -11.7132 -11.7131 -11.7069 -11.7067  -8.6038  -8.6038
    -7.4142  -7.4142  -7.2643  -7.2641  -6.5740  -6.5739  -2.2732  -2.2732
    -2.1754  -2.1753  -2.1515  -2.1514  -2.0287  -2.0286  -1.9952  -1.9952
    -1.9612  -1.9612   3.2139   3.2140   4.2947   4.2947   5.6651   5.6651
     6.5453   6.5454   6.7369   6.7369   7.0699   7.0699   7.2697   7.2698
     7.6195   7.6196   7.6469   7.6469   7.7612   7.7612   7.8384   7.8385
     8.3044   8.3044

     occupation numbers 
     1.0000   1.0000   1.0000   1.0000   1.0000   1.0000   1.0000   1.0000
     1.0000   1.0000   1.0000   1.0000   1.0000   1.0000   1.0000   1.0000
     1.0000   1.0000   1.0000   1.0000   1.0000   1.0000   1.0000   1.0000
     1.0000   1.0000   1.0000   1.0000   1.0000   1.0000   1.0000   1.0000
     1.0000   1.0000   1.0000   1.0000   1.0000   1.0000   1.0000   1.0000
     1.0000   1.0000   1.0000   1.0000   1.0000   1.0000   1.0000   1.0000
     1.0000   1.0000   1.0000   1.0000   1.0000   1.0000   1.0000   1.0000
     1.0000   1.0000

          k = 0.0000 0.4000 0.0000 ( 36050 PWs)   bands (ev):

   -17.0313 -17.0020 -16.9895 -16.9598 -12.2287 -12.2284 -11.9810 -11.9797
   -11.7968 -11.7967 -11.7154 -11.7152 -11.7067 -11.7065  -8.4572  -8.3770
    -7.8193  -7.7620  -7.3141  -7.3002  -6.5888  -6.5388  -2.2674  -2.2238
    -2.1795  -2.1586  -2.1241  -2.1118  -2.0588  -2.0576  -2.0433  -1.9754
[...]
              0.278548182204624E+02
              0.415226325589728E+01
             -0.431467758353911E+01
              0.228909627597611E+01
             -0.386268160901277E+01
              0.221469647432498E+02
              0.240521193988229E+00
              0.398194490013924E+01
              0.155210462841966E+02
              0.441128713129891E+01
             -0.116244418496120E+02
             -0.184889292508081E+02
              0.529174126755919E+00
             -0.213763325863347E+02
              0.693286476515586E+01
             -0.343777005478759E+01
             -0.806220282880582E+01
              0.777958047498308E+01
              0.292696673642519E+01
              0.775524450356610E+01
              0.574915026882294E-01
              0.119823006739090E+02
             -0.205396553726005E+02
             -0.139949081609993E+01
             -0.181518797222273E+02
              0.441021945228140E+01
              0.974663462670816E+01
             -0.131238049397759E+01
             -0.634694369188956E+01
              0.147821646027495E+02
             -0.693927067652941E+01
              0.481680648162281E+01
             -0.406092417999942E+01
              0.113672622346493E+02
              0.113131224456387E+02
             -0.517063006988099E+01
              0.108889959357105E+02
              0.419608391898467E+01
             -0.110998154410046E+02
             -0.656165720326507E+01
              0.170405323608717E+02
              0.837686678041894E+01
             -0.150839787093574E+00
             -0.188544608178364E+01
              0.266299080493109E+02
              0.153266997030160E+02
              0.554776005486686E+01
             -0.170784410707650E+02
              0.261816671457727E+02
             -0.124797937626237E+02
             -0.153528216120734E+02
             -0.227872322382249E+02
              0.106732488932083E+02
             -0.205490622297284E+02
              0.926003100970345E+01
              0.156179520153399E+02
              0.106569603233406E+02
              0.332300379005337E+01
              0.675071943185448E+01
             -0.172897887958467E+02
             -0.615136324290446E+01
             -0.510335705331028E+01
              0.887919364017957E+01
              0.168963889230097E+02
              0.179607542040792E+02
              0.139434403358358E+02
             -0.330796601468421E+01
              0.415448284602297E+01
             -0.374269465970926E+00
             -0.558614337316922E+01
              0.683894792445783E+01
              0.747128672505002E+01
             -0.991403566127024E+01
             -0.116421027278002E+02
             -0.480634576673197E+01
              0.129949893195694E+02
              0.643667148118731E+01
             -0.880301331619578E+01
             -0.128552211698471E+02
             -0.183378661114230E+02
              0.471305478054376E-01
              0.439295559001121E+01
             -0.694298042698355E+01
              0.259791292199404E+02
              0.130314131855229E+01
             -0.305674130740456E+02
              0.703247381534075E+01
              0.135545655107022E+02
             -0.601229426351136E+01
              0.104213953354596E+01
             -0.832002460375719E+01
              0.121547639828132E+02
              0.560251699714481E+01
             -0.156056045562644E+02
              0.187043978537210E+02
              0.521174959081137E-01
             -0.845084969984242E+01
             -0.968347493693918E+01
              0.371213473554766E+02
              0.168652696723160E+02
             -0.419099956261644E+01
              0.940110172358570E+01
             -0.164889378063693E+02
             -0.272206464948280E+01
             -0.164095413009607E+02
              0.667822780408008E+01
              0.104749416866833E+02
              0.132054393589335E+02
             -0.548759751586621E+01
              0.174329312360243E+01
              0.152427819807421E+02
              0.596759677158546E+01
              0.948025724575322E+01
              0.407506896773691E+01
             -0.289599450667369E+01
             -0.157003328308654E+00
             -0.258797223182097E+01
              0.368593592243028E+01
              0.835210925856131E+00
             -0.134394426160026E+02
              0.215184019911212E+02
              0.835734711629856E+01
             -0.151134320409613E+02
             -0.106146019311509E+02
             -0.163010769397439E+02
             -0.823000191649214E+01
             -0.544482299554403E+01
             -0.130332773154004E+02
             -0.124539713625823E+02
              0.164468354790733E+02
              0.124648488541366E+02
             -0.207188938914283E+01
              0.178258419518878E+02
              0.376085060679333E+01
             -0.292154724228948E+02
              0.157717032873218E+02
              0.349713381798684E+01
              0.129259186521626E+02
              0.307816236100557E+01
              0.225223492110006E+01
              0.271031233782674E+01
              0.683469080493521E+01
             -0.116743772543362E+02
             -0.602016728501714E+01
             -0.106271630768929E+02
             -0.842690491803682E+01
              0.448059844451662E+01
             -0.105806463228078E+02
              0.449151222214957E+01
              0.621718416323026E+01
             -0.670225836529463E+01
             -0.375453796614836E+01
             -0.259865155155552E+00
              0.185695935456404E+02
              0.228606682885660E+01
              0.184896158859592E+02
              0.572478921788857E+01
             -0.232888573887441E+02
             -0.834646357113423E+01
              0.760227934472377E+01
              0.168813282683515E+02
              0.383599852837652E+01
              0.672620728890650E+01
              0.167283841748403E+02
             -0.100859176939202E+02
             -0.154665441913610E+02
              0.204992729473584E+02
             -0.131924734927878E+00
             -0.220914709444696E+02
              0.748792008646021E+01
              0.147606535289836E+02
             -0.284462378673993E+01
             -0.132448181982764E+02
              0.184078290444727E+01
              0.130461880830583E+01
             -0.719064334568893E+01
              0.302641686382410E+01
             -0.276259676117383E+01
              0.317178448711838E+02
              0.864097899136652E+01
             -0.149611476003032E+02
              0.457398363230776E+01
              0.203105761056501E+02
             -0.128317863289115E+02
             -0.409453256506591E+01
             -0.116380856395195E+02
              0.883444136901352E+01
              0.409833602181136E+01
              0.570486303195455E+01
              0.610451061589075E+00
              0.223515885655932E+02
             -0.132299420014842E+02
             -0.100506338900933E+02
             -0.105298429072916E+02
              0.954873212592477E+01
              0.218067012973671E+02
             -0.240038181712242E+01
              0.919011531874092E+01
             -0.122056887151091E+02
              0.959222177067119E+00
             -0.365657115155979E+01
             -0.131583654097724E+01
             -0.551271982710769E+01
             -0.497880512695975E+01
             -0.371444555033574E+01
              0.442984995421121E+01
              0.610560815700751E+01
             -0.146385356336146E+02
              0.108703150240640E+02
             -0.170205985250436E+02
              0.131246558097101E+02
             -0.153088858034916E+02
              0.235019368544453E+02
              0.127134382813450E+02
              0.133805192055144E+02
              0.289238973194595E+01
              0.307445745846076E+01
             -0.309696569031254E+02
              0.572016415147625E+01
              0.121490322267553E+01
              0.225239107687526E+01
             -0.462731136142865E+01
              0.231721970100662E+02
             -0.743071650773035E+01
             -0.921487171076787E+01
             -0.242176292852590E+02
             -0.842360988219880E+01
             -0.106670945716700E+02
             -0.964489646689938E+01
             -0.259063022303027E+01
             -0.467708700367116E+01
             -0.682138538498766E+01
             -0.101001651427496E+02
              0.774938096255698E+01
              0.245721279594501E+02
              0.209024074355171E+02
             -0.499665453488609E+01
             -0.258275756228378E+02
             -0.107845560989593E+02
              0.548420531944528E+01
              0.493581453570827E+01
              0.760199815376360E+01
              0.633078378524687E+01
              0.203310129797283E+01
              0.234956550143013E+02
             -0.593091459092130E+01
              0.120661572727744E+02
              0.528821337944164E+01
             -0.792913059205881E+01
             -0.474806701418406E+01
              0.111814627829637E+02
             -0.605956606605825E+01
             -0.451080024459584E+01
             -0.290085432890680E+01
              0.141880739173079E+02
             -0.183657982590076E+02
             -0.256507816383967E+01
             -0.149079626230388E+02
             -0.322988961017447E+02
              0.626691228298512E+00
             -0.401692031318608E+01
              0.116576611217847E+02
              0.133943581095889E+02
              0.181832254771029E+02
             -0.118599696209105E+02
              0.191352449994699E+02
              0.483501143971262E+01
             -0.514985729024264E+01
              0.344755518411446E+01
             -0.656016863787103E+01
             -0.409855223014119E+01
              0.971229484332770E+01
             -0.969563964175576E+01
              0.237607208299166E+02
             -0.576464643041072E+01
             -0.127569147841902E+02
              0.245682277145390E+02
             -0.134485402240731E+02
             -0.210210510181417E+01
              0.235243283193157E+01
              0.725705167889745E+01
             -0.108100566860867E+02
             -0.820483171540643E+01
              0.122716277731803E+02
             -0.203319456117374E+02
              0.149804778967841E+02
              0.233361160094864E+01
              0.113771646031251E+02
              0.161707724379595E+02
              0.334717585045439E+01
             -0.206958098987586E+02
             -0.961775938202475E+01
             -0.156041410464059E+02
             -0.981451059266624E+01
             -0.396547097822045E+01
              0.307993675493341E+01
             -0.665797481450350E+01
              0.805596008205185E+00
             -0.244779212385356E+02
              0.737237036656303E+00
             -0.152194191234313E+02
              0.147714483269175E+02
             -0.755180046897908E+01
             -0.172739975947483E+01
              0.107183546742910E+02
              0.144171251811733E+01
              0.108982272583556E+02
             -0.187876424006598E+02
              0.371466332231475E+01
              0.180167145265257E+01
              0.724208492422174E+01
              0.135578435130326E+02
             -0.185471423172396E+01
             -0.156227821883029E+02
             -0.855453580664551E+01
             -0.634134340897759E+01
             -0.307606448748857E+01
              0.144241934401036E+02
              0.918558249671358E+01
             -0.882228940649625E+01
             -0.866104054652788E+01
              0.732749799975491E+01
              0.664480383326632E+01
             -0.183413788036547E+02
              0.534335748708364E+01
              0.137463061480999E+02
             -0.454433801584752E+00
              0.160924705039493E+02
              0.825610829876670E+01
              0.127741925887817E+02
              0.186592614726997E+02
              0.261294441910181E+01
             -0.280216689661204E+02
              0.283645069558043E+01
              0.301022334282790E+02
              0.215599230614224E+02
             -0.147042301417373E+02
              0.126347789460331E+01
              0.181369599045533E+02
              0.168544341398032E+02
              0.736622132227012E+01
             -0.452981000571904E+01
              0.727298809190600E+01
              0.169765751871697E+02
             -0.723770357108523E+01
             -0.508587692069096E+01
              0.102675777719991E+02
             -0.883570034474985E+00
              0.911903260432524E+01
             -0.227787801817069E+01
              0.196366417886633E+02
             -0.753336091424620E+01
              0.385677049867203E+01
             -0.959552179115620E+01
              0.972384078972630E+01
             -0.105607602464347E+01
              0.147273524572449E+02
              0.648944257462652E+00
              0.525219637283375E+01
             -0.982137936166190E+01
             -0.653828213669108E+01
             -0.314957674771320E+01
             -0.236092225601654E+01
              0.158445658251479E+02
              0.627068576682956E+01
              0.204459353400960E+02
              0.158135660510882E+02
              0.360693014468004E+01
              0.281125557531487E+00
              0.194475865735246E+02
              0.104889392393014E+02
              0.208606355394011E+00
              0.177407560064655E+02
             -0.157003204313353E+02
              0.557485100949680E+01
             -0.975930276886312E+01
             -0.471578767842560E+01
              0.246251358752878E+02
             -0.386301438181323E+01
             -0.348882522313545E+00
             -0.353365255824745E+01
              0.204165416238235E+02
             -0.489730981908950E+01
             -0.493386611399231E+00
              0.418110305970978E+02
             -0.133990817471854E+02
             -0.135133035449372E+02
             -0.153494540795588E+02
             -0.874386196466696E+01
              0.892034689110410E+01
             -0.409516621042329E+01
              0.277021291939747E+01
             -0.525066494712945E+00
              0.478105283687302E+01
              0.867002049118209E+01
              0.942060117344611E+01
              0.154048817421229E+02
              0.798819602054163E+01
              0.106699846593283E+02
             -0.168935898526996E+02
             -0.152029015931975E+02
             -0.428614607636010E+01
             -0.152284549010685E+02
              0.253635039197349E+02
              0.217050822555441E+02
              0.103587867311104E+02
              0.271926476651438E+02
             -0.141469894331830E+02
             -0.639841203223813E+01
             -0.791128864533388E+01
              0.223526941984704E+02
 
 BEEF-vdW xc energy contributions
            1 :    -212.5138200256836     
            2 :     191.3451445092292     
            3 :    -155.5021321723410     
            4 :     114.8760252934208     
            5 :    -78.43069407137935     
            6 :     51.06421921785392     
            7 :    -33.03069828564534     
            8 :     21.60078188078714     
            9 :    -13.50664936156397     
           10 :     6.710442048647252     
           11 :   -0.8368213710644739     
           12 :    -3.487442360057798     
           13 :     5.653884825631792     
           14 :    -5.751448671532245     
           15 :     4.586951590883388     
           16 :    -3.195360063726667     
           17 :     2.275808366910525     
           18 :    -1.951961293632593     
           19 :     1.954655411403451     
           20 :    -2.003923457757054     
           21 :     2.065592828047869     
           22 :    -2.316807452554201     
           23 :     2.907623790636137     
           24 :    -3.744306829516603     
           25 :     4.467361758557928     
           26 :    -4.633115921174237     
           27 :     3.966666364193628     
           28 :    -2.521223783282863     
           29 :    0.6542315438716457     
           30 :     1.148283110762492     
           31 :    -21.86249508831801     
           32 :    -15.39264454961156     

     Writing all to output data dir ./BaSnO3.save/
 
     init_run     :      4.19s CPU      4.31s WALL (       1 calls)
     electrons    :    159.58s CPU    162.54s WALL (       1 calls)
     forces       :      1.42s CPU      1.44s WALL (       1 calls)
     stress       :      2.52s CPU      2.55s WALL (       1 calls)

     Called by init_run:
     wfcinit      :      3.52s CPU      3.59s WALL (       1 calls)
     wfcinit:atom :      0.03s CPU      0.03s WALL (      63 calls)
     wfcinit:wfcr :      3.31s CPU      3.37s WALL (      63 calls)
     potinit      :      0.43s CPU      0.47s WALL (       1 calls)
     hinit0       :      0.11s CPU      0.12s WALL (       1 calls)

     Called by electrons:
     c_bands      :    139.92s CPU    142.36s WALL (      14 calls)
     sum_band     :     17.52s CPU     17.90s WALL (      14 calls)
     v_of_rho     :      1.15s CPU      1.20s WALL (      15 calls)
     v_h          :      0.01s CPU      0.01s WALL (      15 calls)
     v_xc         :      3.21s CPU      3.31s WALL (      51 calls)
     newd         :      0.33s CPU      0.34s WALL (      15 calls)
     PAW_pot      :      0.94s CPU      0.98s WALL (      15 calls)
     mix_rho      :      0.05s CPU      0.05s WALL (      14 calls)
     vdW_kernel   :      0.25s CPU      0.26s WALL (       1 calls)

     Called by c_bands:
     init_us_2    :      1.43s CPU      1.49s WALL (    1953 calls)
     init_us_2:cp :      1.42s CPU      1.49s WALL (    1953 calls)
     cegterg      :    133.80s CPU    136.06s WALL (     882 calls)

     Called by sum_band:
     sum_band:wei :      0.00s CPU      0.00s WALL (      14 calls)
     sum_band:loo :     16.96s CPU     17.31s WALL (      14 calls)
     sum_band:buf :      0.26s CPU      0.28s WALL (     882 calls)
     sum_band:ini :      0.46s CPU      0.49s WALL (     882 calls)
     sum_band:cal :      2.58s CPU      2.61s WALL (     882 calls)
     sum_band:bec :      0.09s CPU      0.09s WALL (     882 calls)
     addusdens    :      0.36s CPU      0.38s WALL (      14 calls)
     addusd:skk   :      0.00s CPU      0.00s WALL (      42 calls)
     addusd:dgemm :      0.18s CPU      0.19s WALL (      42 calls)
     addusd:qvan2 :      0.14s CPU      0.14s WALL (      42 calls)

     Called by *egterg:
     cdiaghg      :     20.14s CPU     20.36s WALL (    4637 calls)
     cegterg:over :      6.37s CPU      6.51s WALL (    3755 calls)
     cegterg:upda :      2.78s CPU      2.83s WALL (    3755 calls)
     cegterg:last :      4.88s CPU      4.94s WALL (    1947 calls)
     h_psi        :     91.47s CPU     93.12s WALL (    4700 calls)
     s_psi        :      5.57s CPU      5.67s WALL (    4700 calls)
     g_psi        :      0.12s CPU      0.12s WALL (    3755 calls)

     Called by h_psi:
     h_psi:calbec :     10.95s CPU     11.11s WALL (    4700 calls)
     vloc_psi     :     73.49s CPU     74.89s WALL (    4700 calls)
     add_vuspsi   :      6.38s CPU      6.47s WALL (    4700 calls)

     General routines
     calbec       :     14.38s CPU     14.59s WALL (    5897 calls)
     fft          :      1.62s CPU      1.65s WALL (    3022 calls)
     ffts         :      0.01s CPU      0.01s WALL (      14 calls)
     fftw         :     82.78s CPU     84.35s WALL (  337464 calls)
 
     Parallel routines

     PAW routines
     PAW_pot      :      0.94s CPU      0.98s WALL (      15 calls)
     PAW_symme    :      0.03s CPU      0.03s WALL (      29 calls)
 
     PWSCF        :   2m54.19s CPU   3m 1.11s WALL

 
   This run was terminated on:  17: 8:57  20Jul2023            

=------------------------------------------------------------------------------=
   JOB DONE.
=------------------------------------------------------------------------------=
