
     Program PWSCF v.7.1 starts on 20Jul2023 at 18: 4:37 

     This program is part of the open-source Quantum ESPRESSO suite
     for quantum simulation of materials; please cite
         "P. Giannozzi et al., J. Phys.:Condens. Matter 21 395502 (2009);
         "P. Giannozzi et al., J. Phys.:Condens. Matter 29 465901 (2017);
         "P. Giannozzi et al., J. Chem. Phys. 152 154105 (2020);
          URL http://www.quantum-espresso.org", 
     in publications or presentations arising from this work. More details at
     http://www.quantum-espresso.org/quote

     Parallel version (MPI & OpenMP), running on     128 processor cores
     Number of MPI processes:               128
     Threads/MPI process:                     1

     MPI processes distributed on     1 nodes
     1945933 MiB available memory on the printing compute node when the environment starts
 
     Reading input from espresso.pwi
Warning: card &CELL ignored
Warning: card / ignored

     Current dimensions of program PWSCF are:
     Max number of different atomic species (ntypx) = 10
     Max number of k-points (npk) =  40000
     Max angular momentum in pseudopotentials (lmaxx) =  4
     file Ba.pbe-spn-kjpaw_psl.1.0.0.UPF: wavefunction(s)  5S 6S renormalized

     **************************************************************************
     Initializing libbeef V0.1.2 with the BEEF-vdW functional.
     Citation: Wellendorff et al., PRB 85, 235149 (2012).
     **************************************************************************


     IMPORTANT: XC functional enforced from input :
     Exchange-correlation= BEEF-VDW
                           (   1   4  43  14   2   0   0)
     Any further DFT definition will be discarded
     Please, verify this is what you really want

     Found identity + (  0.5000  0.5000  0.5000) symmetry
     This is a supercell, fractional translations are disabled
 
     K-points division:     npool     =       4
     R & G space division:  proc/nbgrp/npool/nimage =      32
     Subspace diagonalization in iterative solution of the eigenvalue problem:
     a serial algorithm will be used

 
     Parallelization info
     --------------------
     sticks:   dense  smooth     PW     G-vecs:    dense   smooth      PW
     Min         110     110     30                 4934     4934     716
     Max         111     111     31                 4939     4939     721
     Sum        3529    3529    973               157923   157923   22983
 
     Using Slab Decomposition
 


     bravais-lattice index     =            1
     lattice parameter (alat)  =       9.6163  a.u.
     unit-cell volume          =     889.2413 (a.u.)^3
     number of atoms/cell      =            2
     number of atomic types    =            1
     number of electrons       =        20.00
     number of Kohn-Sham states=           10
     kinetic-energy cutoff     =     120.0000  Ry
     charge density cutoff     =     480.0000  Ry
     scf convergence threshold =      1.0E-08
     mixing beta               =       0.7000
     number of iterations used =            8  plain     mixing
     Exchange-correlation= BEEF-VDW
                           (   1   4  43  14   2   0   0)

     celldm(1)=   9.616267  celldm(2)=   0.000000  celldm(3)=   0.000000
     celldm(4)=   0.000000  celldm(5)=   0.000000  celldm(6)=   0.000000

     crystal axes: (cart. coord. in units of alat)
               a(1) = (   1.000000   0.000000   0.000000 )  
               a(2) = (   0.000000   1.000000   0.000000 )  
               a(3) = (   0.000000   0.000000   1.000000 )  

     reciprocal axes: (cart. coord. in units 2 pi/alat)
               b(1) = (  1.000000  0.000000  0.000000 )  
               b(2) = (  0.000000  1.000000  0.000000 )  
               b(3) = (  0.000000  0.000000  1.000000 )  


     PseudoPot. # 1 for Ba read from file:
     /trace/home/atimmins/packages/espresso/pseudo/Ba.pbe-spn-kjpaw_psl.1.0.0.UPF
     MD5 check sum: c432291d3e53af55f19d5e8866385beb
     Pseudo is Projector augmented-wave + core cor, Zval = 10.0
     Generated using "atomic" code by A. Dal Corso  v.5.1
     Shape of augmentation charge: PSQ
     Using radial grid of 1251 points,  7 beta functions with: 
                l(1) =   0
                l(2) =   0
                l(3) =   0
                l(4) =   1
                l(5) =   1
                l(6) =   2
                l(7) =   2
     Q(r) pseudized with 0 coefficients 


     atomic species   valence    mass     pseudopotential
        Ba            10.00   137.32700     Ba( 1.00)

     48 Sym. Ops., with inversion, found


                                    s                        frac. trans.

      isym =  1     identity                                     

 cryst.   s( 1) = (     1          0          0      )
                  (     0          1          0      )
                  (     0          0          1      )

 cart.    s( 1) = (  1.0000000  0.0000000  0.0000000 )
                  (  0.0000000  1.0000000  0.0000000 )
                  (  0.0000000  0.0000000  1.0000000 )


      isym =  2     180 deg rotation - cart. axis [0,0,1]        

 cryst.   s( 2) = (    -1          0          0      )
                  (     0         -1          0      )
                  (     0          0          1      )

 cart.    s( 2) = ( -1.0000000  0.0000000  0.0000000 )
                  (  0.0000000 -1.0000000  0.0000000 )
                  (  0.0000000  0.0000000  1.0000000 )


      isym =  3     180 deg rotation - cart. axis [0,1,0]        

 cryst.   s( 3) = (    -1          0          0      )
                  (     0          1          0      )
                  (     0          0         -1      )

 cart.    s( 3) = ( -1.0000000  0.0000000  0.0000000 )
                  (  0.0000000  1.0000000  0.0000000 )
                  (  0.0000000  0.0000000 -1.0000000 )


      isym =  4     180 deg rotation - cart. axis [1,0,0]        

 cryst.   s( 4) = (     1          0          0      )
                  (     0         -1          0      )
                  (     0          0         -1      )

 cart.    s( 4) = (  1.0000000  0.0000000  0.0000000 )
                  (  0.0000000 -1.0000000  0.0000000 )
                  (  0.0000000  0.0000000 -1.0000000 )


      isym =  5     180 deg rotation - cart. axis [1,1,0]        

 cryst.   s( 5) = (     0          1          0      )
                  (     1          0          0      )
                  (     0          0         -1      )

 cart.    s( 5) = (  0.0000000  1.0000000  0.0000000 )
                  (  1.0000000  0.0000000  0.0000000 )
                  (  0.0000000  0.0000000 -1.0000000 )


      isym =  6     180 deg rotation - cart. axis [1,-1,0]       

 cryst.   s( 6) = (     0         -1          0      )
                  (    -1          0          0      )
                  (     0          0         -1      )

 cart.    s( 6) = (  0.0000000 -1.0000000  0.0000000 )
                  ( -1.0000000  0.0000000  0.0000000 )
                  (  0.0000000  0.0000000 -1.0000000 )


      isym =  7      90 deg rotation - cart. axis [0,0,-1]       

 cryst.   s( 7) = (     0         -1          0      )
                  (     1          0          0      )
                  (     0          0          1      )

 cart.    s( 7) = (  0.0000000  1.0000000  0.0000000 )
                  ( -1.0000000  0.0000000  0.0000000 )
                  (  0.0000000  0.0000000  1.0000000 )


      isym =  8      90 deg rotation - cart. axis [0,0,1]        

 cryst.   s( 8) = (     0          1          0      )
                  (    -1          0          0      )
                  (     0          0          1      )

 cart.    s( 8) = (  0.0000000 -1.0000000  0.0000000 )
                  (  1.0000000  0.0000000  0.0000000 )
                  (  0.0000000  0.0000000  1.0000000 )


      isym =  9     180 deg rotation - cart. axis [1,0,1]        

 cryst.   s( 9) = (     0          0          1      )
                  (     0         -1          0      )
                  (     1          0          0      )

 cart.    s( 9) = (  0.0000000  0.0000000  1.0000000 )
                  (  0.0000000 -1.0000000  0.0000000 )
                  (  1.0000000  0.0000000  0.0000000 )


      isym = 10     180 deg rotation - cart. axis [-1,0,1]       

 cryst.   s(10) = (     0          0         -1      )
                  (     0         -1          0      )
                  (    -1          0          0      )

 cart.    s(10) = (  0.0000000  0.0000000 -1.0000000 )
                  (  0.0000000 -1.0000000  0.0000000 )
                  ( -1.0000000  0.0000000  0.0000000 )


      isym = 11      90 deg rotation - cart. axis [0,1,0]        

 cryst.   s(11) = (     0          0         -1      )
                  (     0          1          0      )
                  (     1          0          0      )

 cart.    s(11) = (  0.0000000  0.0000000  1.0000000 )
                  (  0.0000000  1.0000000  0.0000000 )
                  ( -1.0000000  0.0000000  0.0000000 )


      isym = 12      90 deg rotation - cart. axis [0,-1,0]       

 cryst.   s(12) = (     0          0          1      )
                  (     0          1          0      )
                  (    -1          0          0      )

 cart.    s(12) = (  0.0000000  0.0000000 -1.0000000 )
                  (  0.0000000  1.0000000  0.0000000 )
                  (  1.0000000  0.0000000  0.0000000 )


      isym = 13     180 deg rotation - cart. axis [0,1,1]        

 cryst.   s(13) = (    -1          0          0      )
                  (     0          0          1      )
                  (     0          1          0      )

 cart.    s(13) = ( -1.0000000  0.0000000  0.0000000 )
                  (  0.0000000  0.0000000  1.0000000 )
                  (  0.0000000  1.0000000  0.0000000 )


      isym = 14     180 deg rotation - cart. axis [0,1,-1]       

 cryst.   s(14) = (    -1          0          0      )
                  (     0          0         -1      )
                  (     0         -1          0      )

 cart.    s(14) = ( -1.0000000  0.0000000  0.0000000 )
                  (  0.0000000  0.0000000 -1.0000000 )
                  (  0.0000000 -1.0000000  0.0000000 )


      isym = 15      90 deg rotation - cart. axis [-1,0,0]       

 cryst.   s(15) = (     1          0          0      )
                  (     0          0         -1      )
                  (     0          1          0      )

 cart.    s(15) = (  1.0000000  0.0000000  0.0000000 )
                  (  0.0000000  0.0000000  1.0000000 )
                  (  0.0000000 -1.0000000  0.0000000 )


      isym = 16      90 deg rotation - cart. axis [1,0,0]        

 cryst.   s(16) = (     1          0          0      )
                  (     0          0          1      )
                  (     0         -1          0      )

 cart.    s(16) = (  1.0000000  0.0000000  0.0000000 )
                  (  0.0000000  0.0000000 -1.0000000 )
                  (  0.0000000  1.0000000  0.0000000 )


      isym = 17     120 deg rotation - cart. axis [-1,-1,-1]     

 cryst.   s(17) = (     0          0          1      )
                  (     1          0          0      )
                  (     0          1          0      )

 cart.    s(17) = (  0.0000000  1.0000000  0.0000000 )
                  (  0.0000000  0.0000000  1.0000000 )
                  (  1.0000000  0.0000000  0.0000000 )


      isym = 18     120 deg rotation - cart. axis [-1,1,1]       

 cryst.   s(18) = (     0          0         -1      )
                  (    -1          0          0      )
                  (     0          1          0      )

 cart.    s(18) = (  0.0000000 -1.0000000  0.0000000 )
                  (  0.0000000  0.0000000  1.0000000 )
                  ( -1.0000000  0.0000000  0.0000000 )


      isym = 19     120 deg rotation - cart. axis [1,1,-1]       

 cryst.   s(19) = (     0          0         -1      )
                  (     1          0          0      )
                  (     0         -1          0      )

 cart.    s(19) = (  0.0000000  1.0000000  0.0000000 )
                  (  0.0000000  0.0000000 -1.0000000 )
                  ( -1.0000000  0.0000000  0.0000000 )


      isym = 20     120 deg rotation - cart. axis [1,-1,1]       

 cryst.   s(20) = (     0          0          1      )
                  (    -1          0          0      )
                  (     0         -1          0      )

 cart.    s(20) = (  0.0000000 -1.0000000  0.0000000 )
                  (  0.0000000  0.0000000 -1.0000000 )
                  (  1.0000000  0.0000000  0.0000000 )


      isym = 21     120 deg rotation - cart. axis [1,1,1]        

 cryst.   s(21) = (     0          1          0      )
                  (     0          0          1      )
                  (     1          0          0      )

 cart.    s(21) = (  0.0000000  0.0000000  1.0000000 )
                  (  1.0000000  0.0000000  0.0000000 )
                  (  0.0000000  1.0000000  0.0000000 )


      isym = 22     120 deg rotation - cart. axis [-1,1,-1]      

 cryst.   s(22) = (     0         -1          0      )
                  (     0          0         -1      )
                  (     1          0          0      )

 cart.    s(22) = (  0.0000000  0.0000000  1.0000000 )
                  ( -1.0000000  0.0000000  0.0000000 )
                  (  0.0000000 -1.0000000  0.0000000 )


      isym = 23     120 deg rotation - cart. axis [1,-1,-1]      

 cryst.   s(23) = (     0         -1          0      )
                  (     0          0          1      )
                  (    -1          0          0      )

 cart.    s(23) = (  0.0000000  0.0000000 -1.0000000 )
                  ( -1.0000000  0.0000000  0.0000000 )
                  (  0.0000000  1.0000000  0.0000000 )


      isym = 24     120 deg rotation - cart. axis [-1,-1,1]      

 cryst.   s(24) = (     0          1          0      )
                  (     0          0         -1      )
                  (    -1          0          0      )

 cart.    s(24) = (  0.0000000  0.0000000 -1.0000000 )
                  (  1.0000000  0.0000000  0.0000000 )
                  (  0.0000000 -1.0000000  0.0000000 )


      isym = 25     inversion                                    

 cryst.   s(25) = (    -1          0          0      )
                  (     0         -1          0      )
                  (     0          0         -1      )

 cart.    s(25) = ( -1.0000000  0.0000000  0.0000000 )
                  (  0.0000000 -1.0000000  0.0000000 )
                  (  0.0000000  0.0000000 -1.0000000 )


      isym = 26     inv. 180 deg rotation - cart. axis [0,0,1]   

 cryst.   s(26) = (     1          0          0      )
                  (     0          1          0      )
                  (     0          0         -1      )

 cart.    s(26) = (  1.0000000  0.0000000  0.0000000 )
                  (  0.0000000  1.0000000  0.0000000 )
                  (  0.0000000  0.0000000 -1.0000000 )


      isym = 27     inv. 180 deg rotation - cart. axis [0,1,0]   

 cryst.   s(27) = (     1          0          0      )
                  (     0         -1          0      )
                  (     0          0          1      )

 cart.    s(27) = (  1.0000000  0.0000000  0.0000000 )
                  (  0.0000000 -1.0000000  0.0000000 )
                  (  0.0000000  0.0000000  1.0000000 )


      isym = 28     inv. 180 deg rotation - cart. axis [1,0,0]   

 cryst.   s(28) = (    -1          0          0      )
                  (     0          1          0      )
                  (     0          0          1      )

 cart.    s(28) = ( -1.0000000  0.0000000  0.0000000 )
                  (  0.0000000  1.0000000  0.0000000 )
                  (  0.0000000  0.0000000  1.0000000 )


      isym = 29     inv. 180 deg rotation - cart. axis [1,1,0]   

 cryst.   s(29) = (     0         -1          0      )
                  (    -1          0          0      )
                  (     0          0          1      )

 cart.    s(29) = (  0.0000000 -1.0000000  0.0000000 )
                  ( -1.0000000  0.0000000  0.0000000 )
                  (  0.0000000  0.0000000  1.0000000 )


      isym = 30     inv. 180 deg rotation - cart. axis [1,-1,0]  

 cryst.   s(30) = (     0          1          0      )
                  (     1          0          0      )
                  (     0          0          1      )

 cart.    s(30) = (  0.0000000  1.0000000  0.0000000 )
                  (  1.0000000  0.0000000  0.0000000 )
                  (  0.0000000  0.0000000  1.0000000 )


      isym = 31     inv.  90 deg rotation - cart. axis [0,0,-1]  

 cryst.   s(31) = (     0          1          0      )
                  (    -1          0          0      )
                  (     0          0         -1      )

 cart.    s(31) = (  0.0000000 -1.0000000  0.0000000 )
                  (  1.0000000  0.0000000  0.0000000 )
                  (  0.0000000  0.0000000 -1.0000000 )


      isym = 32     inv.  90 deg rotation - cart. axis [0,0,1]   

 cryst.   s(32) = (     0         -1          0      )
                  (     1          0          0      )
                  (     0          0         -1      )

 cart.    s(32) = (  0.0000000  1.0000000  0.0000000 )
                  ( -1.0000000  0.0000000  0.0000000 )
                  (  0.0000000  0.0000000 -1.0000000 )


      isym = 33     inv. 180 deg rotation - cart. axis [1,0,1]   

 cryst.   s(33) = (     0          0         -1      )
                  (     0          1          0      )
                  (    -1          0          0      )

 cart.    s(33) = (  0.0000000  0.0000000 -1.0000000 )
                  (  0.0000000  1.0000000  0.0000000 )
                  ( -1.0000000  0.0000000  0.0000000 )


      isym = 34     inv. 180 deg rotation - cart. axis [-1,0,1]  

 cryst.   s(34) = (     0          0          1      )
                  (     0          1          0      )
                  (     1          0          0      )

 cart.    s(34) = (  0.0000000  0.0000000  1.0000000 )
                  (  0.0000000  1.0000000  0.0000000 )
                  (  1.0000000  0.0000000  0.0000000 )


      isym = 35     inv.  90 deg rotation - cart. axis [0,1,0]   

 cryst.   s(35) = (     0          0          1      )
                  (     0         -1          0      )
                  (    -1          0          0      )

 cart.    s(35) = (  0.0000000  0.0000000 -1.0000000 )
                  (  0.0000000 -1.0000000  0.0000000 )
                  (  1.0000000  0.0000000  0.0000000 )


      isym = 36     inv.  90 deg rotation - cart. axis [0,-1,0]  

 cryst.   s(36) = (     0          0         -1      )
                  (     0         -1          0      )
                  (     1          0          0      )

 cart.    s(36) = (  0.0000000  0.0000000  1.0000000 )
                  (  0.0000000 -1.0000000  0.0000000 )
                  ( -1.0000000  0.0000000  0.0000000 )


      isym = 37     inv. 180 deg rotation - cart. axis [0,1,1]   

 cryst.   s(37) = (     1          0          0      )
                  (     0          0         -1      )
                  (     0         -1          0      )

 cart.    s(37) = (  1.0000000  0.0000000  0.0000000 )
                  (  0.0000000  0.0000000 -1.0000000 )
                  (  0.0000000 -1.0000000  0.0000000 )


      isym = 38     inv. 180 deg rotation - cart. axis [0,1,-1]  

 cryst.   s(38) = (     1          0          0      )
                  (     0          0          1      )
                  (     0          1          0      )

 cart.    s(38) = (  1.0000000  0.0000000  0.0000000 )
                  (  0.0000000  0.0000000  1.0000000 )
                  (  0.0000000  1.0000000  0.0000000 )


      isym = 39     inv.  90 deg rotation - cart. axis [-1,0,0]  

 cryst.   s(39) = (    -1          0          0      )
                  (     0          0          1      )
                  (     0         -1          0      )

 cart.    s(39) = ( -1.0000000  0.0000000  0.0000000 )
                  (  0.0000000  0.0000000 -1.0000000 )
                  (  0.0000000  1.0000000  0.0000000 )


      isym = 40     inv.  90 deg rotation - cart. axis [1,0,0]   

 cryst.   s(40) = (    -1          0          0      )
                  (     0          0         -1      )
                  (     0          1          0      )

 cart.    s(40) = ( -1.0000000  0.0000000  0.0000000 )
                  (  0.0000000  0.0000000  1.0000000 )
                  (  0.0000000 -1.0000000  0.0000000 )


      isym = 41     inv. 120 deg rotation - cart. axis [-1,-1,-1]

 cryst.   s(41) = (     0          0         -1      )
                  (    -1          0          0      )
                  (     0         -1          0      )

 cart.    s(41) = (  0.0000000 -1.0000000  0.0000000 )
                  (  0.0000000  0.0000000 -1.0000000 )
                  ( -1.0000000  0.0000000  0.0000000 )


      isym = 42     inv. 120 deg rotation - cart. axis [-1,1,1]  

 cryst.   s(42) = (     0          0          1      )
                  (     1          0          0      )
                  (     0         -1          0      )

 cart.    s(42) = (  0.0000000  1.0000000  0.0000000 )
                  (  0.0000000  0.0000000 -1.0000000 )
                  (  1.0000000  0.0000000  0.0000000 )


      isym = 43     inv. 120 deg rotation - cart. axis [1,1,-1]  

 cryst.   s(43) = (     0          0          1      )
                  (    -1          0          0      )
                  (     0          1          0      )

 cart.    s(43) = (  0.0000000 -1.0000000  0.0000000 )
                  (  0.0000000  0.0000000  1.0000000 )
                  (  1.0000000  0.0000000  0.0000000 )


      isym = 44     inv. 120 deg rotation - cart. axis [1,-1,1]  

 cryst.   s(44) = (     0          0         -1      )
                  (     1          0          0      )
                  (     0          1          0      )

 cart.    s(44) = (  0.0000000  1.0000000  0.0000000 )
                  (  0.0000000  0.0000000  1.0000000 )
                  ( -1.0000000  0.0000000  0.0000000 )


      isym = 45     inv. 120 deg rotation - cart. axis [1,1,1]   

 cryst.   s(45) = (     0         -1          0      )
                  (     0          0         -1      )
                  (    -1          0          0      )

 cart.    s(45) = (  0.0000000  0.0000000 -1.0000000 )
                  ( -1.0000000  0.0000000  0.0000000 )
                  (  0.0000000 -1.0000000  0.0000000 )


      isym = 46     inv. 120 deg rotation - cart. axis [-1,1,-1] 

 cryst.   s(46) = (     0          1          0      )
                  (     0          0          1      )
                  (    -1          0          0      )

 cart.    s(46) = (  0.0000000  0.0000000 -1.0000000 )
                  (  1.0000000  0.0000000  0.0000000 )
                  (  0.0000000  1.0000000  0.0000000 )


      isym = 47     inv. 120 deg rotation - cart. axis [1,-1,-1] 

 cryst.   s(47) = (     0          1          0      )
                  (     0          0         -1      )
                  (     1          0          0      )

 cart.    s(47) = (  0.0000000  0.0000000  1.0000000 )
                  (  1.0000000  0.0000000  0.0000000 )
                  (  0.0000000 -1.0000000  0.0000000 )


      isym = 48     inv. 120 deg rotation - cart. axis [-1,-1,1] 

 cryst.   s(48) = (     0         -1          0      )
                  (     0          0          1      )
                  (     1          0          0      )

 cart.    s(48) = (  0.0000000  0.0000000  1.0000000 )
                  ( -1.0000000  0.0000000  0.0000000 )
                  (  0.0000000  1.0000000  0.0000000 )


     point group O_h (m-3m) 
     there are 10 classes
     the character table:

       E     8C3   3C2   6C4   6C2'  i     8S6   3s_h  6S4   6s_d 
A_1g   1.00  1.00  1.00  1.00  1.00  1.00  1.00  1.00  1.00  1.00
A_2g   1.00  1.00  1.00 -1.00 -1.00  1.00  1.00  1.00 -1.00 -1.00
E_g    2.00 -1.00  2.00  0.00  0.00  2.00 -1.00  2.00  0.00  0.00
T_1g   3.00  0.00 -1.00  1.00 -1.00  3.00  0.00 -1.00  1.00 -1.00
T_2g   3.00  0.00 -1.00 -1.00  1.00  3.00  0.00 -1.00 -1.00  1.00
A_1u   1.00  1.00  1.00  1.00  1.00 -1.00 -1.00 -1.00 -1.00 -1.00
A_2u   1.00  1.00  1.00 -1.00 -1.00 -1.00 -1.00 -1.00  1.00  1.00
E_u    2.00 -1.00  2.00  0.00  0.00 -2.00  1.00 -2.00  0.00  0.00
T_1u   3.00  0.00 -1.00  1.00 -1.00 -3.00  0.00  1.00 -1.00  1.00
T_2u   3.00  0.00 -1.00 -1.00  1.00 -3.00  0.00  1.00  1.00 -1.00

     the symmetry operations in each class and the name of the first element:

     E        1
          identity                                               
     8C3     17   19   20   18   24   21   22   23
          120 deg rotation - cart. axis [-1,-1,-1]               
     3C2      2    4    3
          180 deg rotation - cart. axis [0,0,1]                  
     6C4      7    8   15   16   12   11
           90 deg rotation - cart. axis [0,0,-1]                 
     6C2'     5    6   14   13   10    9
          180 deg rotation - cart. axis [1,1,0]                  
     i       25
          inversion                                              
     8S6     41   43   44   42   48   45   46   47
          inv. 120 deg rotation - cart. axis [-1,-1,-1]          
     3s_h    26   28   27
          inv. 180 deg rotation - cart. axis [0,0,1]             
     6S4     31   32   39   40   36   35
          inv.  90 deg rotation - cart. axis [0,0,-1]            
     6s_d    29   30   38   37   34   33
          inv. 180 deg rotation - cart. axis [1,1,0]             

   Cartesian axes

     site n.     atom                  positions (alat units)
         1           Ba  tau(   1) = (   0.0000000   0.0000000   0.0000000  )
         2           Ba  tau(   2) = (   0.5000000   0.5000000   0.5000000  )

   Crystallographic axes

     site n.     atom                  positions (cryst. coord.)
         1           Ba  tau(   1) = (  0.0000000  0.0000000  0.0000000  )
         2           Ba  tau(   2) = (  0.5000000  0.5000000  0.5000000  )

     number of k points=    56
                       cart. coord. in units 2pi/alat
        k(    1) = (   0.0000000   0.0000000   0.0000000), wk =   0.0020000
        k(    2) = (   0.0000000   0.0000000   0.1000000), wk =   0.0120000
        k(    3) = (   0.0000000   0.0000000   0.2000000), wk =   0.0120000
        k(    4) = (   0.0000000   0.0000000   0.3000000), wk =   0.0120000
        k(    5) = (   0.0000000   0.0000000   0.4000000), wk =   0.0120000
        k(    6) = (   0.0000000   0.0000000  -0.5000000), wk =   0.0060000
        k(    7) = (   0.0000000   0.1000000   0.1000000), wk =   0.0240000
        k(    8) = (   0.0000000   0.1000000   0.2000000), wk =   0.0480000
        k(    9) = (   0.0000000   0.1000000   0.3000000), wk =   0.0480000
        k(   10) = (   0.0000000   0.1000000   0.4000000), wk =   0.0480000
        k(   11) = (   0.0000000   0.1000000  -0.5000000), wk =   0.0240000
        k(   12) = (   0.0000000   0.2000000   0.2000000), wk =   0.0240000
        k(   13) = (   0.0000000   0.2000000   0.3000000), wk =   0.0480000
        k(   14) = (   0.0000000   0.2000000   0.4000000), wk =   0.0480000
        k(   15) = (   0.0000000   0.2000000  -0.5000000), wk =   0.0240000
        k(   16) = (   0.0000000   0.3000000   0.3000000), wk =   0.0240000
        k(   17) = (   0.0000000   0.3000000   0.4000000), wk =   0.0480000
        k(   18) = (   0.0000000   0.3000000  -0.5000000), wk =   0.0240000
        k(   19) = (   0.0000000   0.4000000   0.4000000), wk =   0.0240000
        k(   20) = (   0.0000000   0.4000000  -0.5000000), wk =   0.0240000
        k(   21) = (   0.0000000  -0.5000000  -0.5000000), wk =   0.0060000
        k(   22) = (   0.1000000   0.1000000   0.1000000), wk =   0.0160000
        k(   23) = (   0.1000000   0.1000000   0.2000000), wk =   0.0480000
        k(   24) = (   0.1000000   0.1000000   0.3000000), wk =   0.0480000
        k(   25) = (   0.1000000   0.1000000   0.4000000), wk =   0.0480000
        k(   26) = (   0.1000000   0.1000000  -0.5000000), wk =   0.0240000
        k(   27) = (   0.1000000   0.2000000   0.2000000), wk =   0.0480000
        k(   28) = (   0.1000000   0.2000000   0.3000000), wk =   0.0960000
        k(   29) = (   0.1000000   0.2000000   0.4000000), wk =   0.0960000
        k(   30) = (   0.1000000   0.2000000  -0.5000000), wk =   0.0480000
        k(   31) = (   0.1000000   0.3000000   0.3000000), wk =   0.0480000
        k(   32) = (   0.1000000   0.3000000   0.4000000), wk =   0.0960000
        k(   33) = (   0.1000000   0.3000000  -0.5000000), wk =   0.0480000
        k(   34) = (   0.1000000   0.4000000   0.4000000), wk =   0.0480000
        k(   35) = (   0.1000000   0.4000000  -0.5000000), wk =   0.0480000
        k(   36) = (   0.1000000  -0.5000000  -0.5000000), wk =   0.0120000
        k(   37) = (   0.2000000   0.2000000   0.2000000), wk =   0.0160000
        k(   38) = (   0.2000000   0.2000000   0.3000000), wk =   0.0480000
        k(   39) = (   0.2000000   0.2000000   0.4000000), wk =   0.0480000
        k(   40) = (   0.2000000   0.2000000  -0.5000000), wk =   0.0240000
        k(   41) = (   0.2000000   0.3000000   0.3000000), wk =   0.0480000
        k(   42) = (   0.2000000   0.3000000   0.4000000), wk =   0.0960000
        k(   43) = (   0.2000000   0.3000000  -0.5000000), wk =   0.0480000
        k(   44) = (   0.2000000   0.4000000   0.4000000), wk =   0.0480000
        k(   45) = (   0.2000000   0.4000000  -0.5000000), wk =   0.0480000
        k(   46) = (   0.2000000  -0.5000000  -0.5000000), wk =   0.0120000
        k(   47) = (   0.3000000   0.3000000   0.3000000), wk =   0.0160000
        k(   48) = (   0.3000000   0.3000000   0.4000000), wk =   0.0480000
        k(   49) = (   0.3000000   0.3000000  -0.5000000), wk =   0.0240000
        k(   50) = (   0.3000000   0.4000000   0.4000000), wk =   0.0480000
        k(   51) = (   0.3000000   0.4000000  -0.5000000), wk =   0.0480000
        k(   52) = (   0.3000000  -0.5000000  -0.5000000), wk =   0.0120000
        k(   53) = (   0.4000000   0.4000000   0.4000000), wk =   0.0160000
        k(   54) = (   0.4000000   0.4000000  -0.5000000), wk =   0.0240000
        k(   55) = (   0.4000000  -0.5000000  -0.5000000), wk =   0.0120000
        k(   56) = (  -0.5000000  -0.5000000  -0.5000000), wk =   0.0020000

                       cryst. coord.
        k(    1) = (   0.0000000   0.0000000   0.0000000), wk =   0.0020000
        k(    2) = (   0.0000000   0.0000000   0.1000000), wk =   0.0120000
        k(    3) = (   0.0000000   0.0000000   0.2000000), wk =   0.0120000
        k(    4) = (   0.0000000   0.0000000   0.3000000), wk =   0.0120000
        k(    5) = (   0.0000000   0.0000000   0.4000000), wk =   0.0120000
        k(    6) = (   0.0000000   0.0000000  -0.5000000), wk =   0.0060000
        k(    7) = (   0.0000000   0.1000000   0.1000000), wk =   0.0240000
        k(    8) = (   0.0000000   0.1000000   0.2000000), wk =   0.0480000
        k(    9) = (   0.0000000   0.1000000   0.3000000), wk =   0.0480000
        k(   10) = (   0.0000000   0.1000000   0.4000000), wk =   0.0480000
        k(   11) = (   0.0000000   0.1000000  -0.5000000), wk =   0.0240000
        k(   12) = (   0.0000000   0.2000000   0.2000000), wk =   0.0240000
        k(   13) = (   0.0000000   0.2000000   0.3000000), wk =   0.0480000
        k(   14) = (   0.0000000   0.2000000   0.4000000), wk =   0.0480000
        k(   15) = (   0.0000000   0.2000000  -0.5000000), wk =   0.0240000
        k(   16) = (   0.0000000   0.3000000   0.3000000), wk =   0.0240000
        k(   17) = (   0.0000000   0.3000000   0.4000000), wk =   0.0480000
        k(   18) = (   0.0000000   0.3000000  -0.5000000), wk =   0.0240000
        k(   19) = (   0.0000000   0.4000000   0.4000000), wk =   0.0240000
        k(   20) = (   0.0000000   0.4000000  -0.5000000), wk =   0.0240000
        k(   21) = (   0.0000000  -0.5000000  -0.5000000), wk =   0.0060000
        k(   22) = (   0.1000000   0.1000000   0.1000000), wk =   0.0160000
        k(   23) = (   0.1000000   0.1000000   0.2000000), wk =   0.0480000
        k(   24) = (   0.1000000   0.1000000   0.3000000), wk =   0.0480000
        k(   25) = (   0.1000000   0.1000000   0.4000000), wk =   0.0480000
        k(   26) = (   0.1000000   0.1000000  -0.5000000), wk =   0.0240000
        k(   27) = (   0.1000000   0.2000000   0.2000000), wk =   0.0480000
        k(   28) = (   0.1000000   0.2000000   0.3000000), wk =   0.0960000
        k(   29) = (   0.1000000   0.2000000   0.4000000), wk =   0.0960000
        k(   30) = (   0.1000000   0.2000000  -0.5000000), wk =   0.0480000
        k(   31) = (   0.1000000   0.3000000   0.3000000), wk =   0.0480000
        k(   32) = (   0.1000000   0.3000000   0.4000000), wk =   0.0960000
        k(   33) = (   0.1000000   0.3000000  -0.5000000), wk =   0.0480000
        k(   34) = (   0.1000000   0.4000000   0.4000000), wk =   0.0480000
        k(   35) = (   0.1000000   0.4000000  -0.5000000), wk =   0.0480000
        k(   36) = (   0.1000000  -0.5000000  -0.5000000), wk =   0.0120000
        k(   37) = (   0.2000000   0.2000000   0.2000000), wk =   0.0160000
        k(   38) = (   0.2000000   0.2000000   0.3000000), wk =   0.0480000
        k(   39) = (   0.2000000   0.2000000   0.4000000), wk =   0.0480000
        k(   40) = (   0.2000000   0.2000000  -0.5000000), wk =   0.0240000
        k(   41) = (   0.2000000   0.3000000   0.3000000), wk =   0.0480000
        k(   42) = (   0.2000000   0.3000000   0.4000000), wk =   0.0960000
        k(   43) = (   0.2000000   0.3000000  -0.5000000), wk =   0.0480000
        k(   44) = (   0.2000000   0.4000000   0.4000000), wk =   0.0480000
        k(   45) = (   0.2000000   0.4000000  -0.5000000), wk =   0.0480000
        k(   46) = (   0.2000000  -0.5000000  -0.5000000), wk =   0.0120000
        k(   47) = (   0.3000000   0.3000000   0.3000000), wk =   0.0160000
        k(   48) = (   0.3000000   0.3000000   0.4000000), wk =   0.0480000
        k(   49) = (   0.3000000   0.3000000  -0.5000000), wk =   0.0240000
        k(   50) = (   0.3000000   0.4000000   0.4000000), wk =   0.0480000
        k(   51) = (   0.3000000   0.4000000  -0.5000000), wk =   0.0480000
        k(   52) = (   0.3000000  -0.5000000  -0.5000000), wk =   0.0120000
        k(   53) = (   0.4000000   0.4000000   0.4000000), wk =   0.0160000
        k(   54) = (   0.4000000   0.4000000  -0.5000000), wk =   0.0240000
        k(   55) = (   0.4000000  -0.5000000  -0.5000000), wk =   0.0120000
        k(   56) = (  -0.5000000  -0.5000000  -0.5000000), wk =   0.0020000

     Dense  grid:   157923 G-vectors     FFT dimensions: (  72,  72,  72)

     Dynamical RAM for                 wfc:       0.09 MB

     Dynamical RAM for     wfc (w. buffer):       1.41 MB

     Dynamical RAM for           str. fact:       0.08 MB

     Dynamical RAM for           local pot:       0.00 MB

     Dynamical RAM for          nlocal pot:       0.36 MB

     Dynamical RAM for                qrad:       2.34 MB

     Dynamical RAM for          rho,v,vnew:       0.58 MB

     Dynamical RAM for               rhoin:       0.19 MB

     Dynamical RAM for            rho*nmix:       1.21 MB

     Dynamical RAM for           G-vectors:       0.32 MB

     Dynamical RAM for          h,s,v(r/c):       0.02 MB

     Dynamical RAM for          <psi|beta>:       0.01 MB

     Dynamical RAM for                 psi:       0.19 MB

     Dynamical RAM for                hpsi:       0.19 MB

     Dynamical RAM for                spsi:       0.19 MB

     Dynamical RAM for      wfcinit/wfcrot:       0.19 MB

     Dynamical RAM for           addusdens:       3.95 MB

     Dynamical RAM for          addusforce:       3.98 MB

     Dynamical RAM for         addusstress:       4.17 MB

     Estimated static dynamical RAM per process >       6.03 MB

     Estimated max dynamical RAM per process >      11.40 MB

     Estimated total dynamical RAM >       1.31 GB

     Initial potential from superposition of free atoms

     starting charge      19.9660, renormalised to      20.0000


     %%%%%%%%%%%%%%%%%%%%%%%%%%%%%%%%%%%%%%%%%%%%%%%%%%%%%%%%%%%%%%%%%%%%%%%%
     %                                                                      %
     % You are using vdW-DF, which was implemented by the Thonhauser group. %
     % Please cite the following two papers that made this development      %
     % possible and the two reviews that describe the various versions:     %
     %                                                                      %
     %   T. Thonhauser et al., PRL 115, 136402 (2015).                      %
     %   T. Thonhauser et al., PRB 76, 125112 (2007).                       %
     %   K. Berland et al., Rep. Prog. Phys. 78, 066501 (2015).             %
     %   D.C. Langreth et al., J. Phys.: Condens. Matter 21, 084203 (2009). %
     %                                                                      %
     % If you are calculating stress with vdW-DF, please also cite:         %
     %                                                                      %
     %   R. Sabatini et al., J. Phys.: Condens. Matter 24, 424209 (2012).   %
     %                                                                      %
     %%%%%%%%%%%%%%%%%%%%%%%%%%%%%%%%%%%%%%%%%%%%%%%%%%%%%%%%%%%%%%%%%%%%%%%%

     %%%%%%%%%%%%%%%%%%%%%%%%%%%%%%%%%%%%%%%%%%%%%%%%%%%%%%%%%%%%%%%%%%%%%%%%
     %                                                                      %
     %  vdW-DF NEWS:                                                        %
     %                                                                      %
     %  * vdW-DF3 is now available. DOI: 10.1021/acs.jctc.0c00471           %
     %    use with input_dft = 'vdW-DF3-opt1' or 'vdW-DF3-opt2'             %
     %                                                                      %
     %  * Unscreened and range-separated vdW-DF hybrid functionals          %
     %    DOI: 10.1063/1.4986522 and 10.1088/1361-648X/ac2ad2               %
     %    use with input_dft = 'vdW-DF-cx0' (etc) and 'vdW-DF-ahcx'         %
     %                                                                      %
     %%%%%%%%%%%%%%%%%%%%%%%%%%%%%%%%%%%%%%%%%%%%%%%%%%%%%%%%%%%%%%%%%%%%%%%%


     Carrying out vdW-DF run using the following parameters:
     Nqs    =  20  Npoints =  1024  r_max =  100.000
     q_mesh =  0.00001000  0.04494208  0.09755937  0.15916263
               0.23128650  0.31572767  0.41458969  0.53033537
               0.66584808  0.82450364  1.01025438  1.22772762
               1.48234092  1.78043706  2.12944203  2.53805004
               3.01644009  3.57652955  4.23227104  5.00000000


     -----------------------------------------------
     Non-local corr. energy    =       0.40093042 Ry
     -----------------------------------------------

     Starting wfcs are   10 randomized atomic wfcs
     Checking if some PAW data can be deallocated... 

     total cpu time spent up to now is        1.0 secs

     Self-consistent Calculation

     iteration #  1     ecut=   120.00 Ry     beta= 0.70
     Davidson diagonalization with overlap

---- Real-time Memory Report at c_bands before calling an iterative solver
           147 MiB given to the printing process from OS
             0 MiB allocation reported by mallinfo(arena+hblkhd)
       1941499 MiB available memory on the node where the printing process lives
------------------
     ethr =  1.00E-02,  avg # of iterations =  4.3

     Threshold (ethr) on eigenvalues was too large:
     Diagonalizing with lowered threshold

     Davidson diagonalization with overlap

---- Real-time Memory Report at c_bands before calling an iterative solver
           150 MiB given to the printing process from OS
             0 MiB allocation reported by mallinfo(arena+hblkhd)
       1941407 MiB available memory on the node where the printing process lives
------------------
     ethr =  6.11E-06,  avg # of iterations =  9.9


     -----------------------------------------------
     Non-local corr. energy    =       0.40237667 Ry
     -----------------------------------------------


     total cpu time spent up to now is        2.0 secs

     total energy              =    -899.72966773 Ry
     estimated scf accuracy    <       0.00186490 Ry

     iteration #  2     ecut=   120.00 Ry     beta= 0.70
     Davidson diagonalization with overlap

---- Real-time Memory Report at c_bands before calling an iterative solver
           161 MiB given to the printing process from OS
             0 MiB allocation reported by mallinfo(arena+hblkhd)
       1940821 MiB available memory on the node where the printing process lives
------------------
     ethr =  9.32E-06,  avg # of iterations =  2.0


     -----------------------------------------------
     Non-local corr. energy    =       0.40264223 Ry
     -----------------------------------------------


     total cpu time spent up to now is        2.4 secs

     total energy              =    -899.73011117 Ry
     estimated scf accuracy    <       0.00015829 Ry

     iteration #  3     ecut=   120.00 Ry     beta= 0.70
     Davidson diagonalization with overlap

---- Real-time Memory Report at c_bands before calling an iterative solver
           163 MiB given to the printing process from OS
             0 MiB allocation reported by mallinfo(arena+hblkhd)
       1940704 MiB available memory on the node where the printing process lives
------------------
     ethr =  7.91E-07,  avg # of iterations =  5.4


     -----------------------------------------------
     Non-local corr. energy    =       0.40271640 Ry
     -----------------------------------------------


     total cpu time spent up to now is        3.0 secs

     total energy              =    -899.73019105 Ry
     estimated scf accuracy    <       0.00005601 Ry

     iteration #  4     ecut=   120.00 Ry     beta= 0.70
     Davidson diagonalization with overlap

---- Real-time Memory Report at c_bands before calling an iterative solver
           164 MiB given to the printing process from OS
             0 MiB allocation reported by mallinfo(arena+hblkhd)
       1940683 MiB available memory on the node where the printing process lives
------------------
     ethr =  2.80E-07,  avg # of iterations =  3.5


     -----------------------------------------------
     Non-local corr. energy    =       0.40271954 Ry
     -----------------------------------------------


     total cpu time spent up to now is        3.5 secs

     total energy              =    -899.73020847 Ry
     estimated scf accuracy    <       0.00000371 Ry

     iteration #  5     ecut=   120.00 Ry     beta= 0.70
     Davidson diagonalization with overlap

---- Real-time Memory Report at c_bands before calling an iterative solver
           165 MiB given to the printing process from OS
             0 MiB allocation reported by mallinfo(arena+hblkhd)
       1940655 MiB available memory on the node where the printing process lives
------------------
     ethr =  1.85E-08,  avg # of iterations =  6.3


     -----------------------------------------------
     Non-local corr. energy    =       0.40271259 Ry
     -----------------------------------------------


     total cpu time spent up to now is        4.0 secs

     total energy              =    -899.73022425 Ry
     estimated scf accuracy    <       0.00000068 Ry

     iteration #  6     ecut=   120.00 Ry     beta= 0.70
     Davidson diagonalization with overlap

---- Real-time Memory Report at c_bands before calling an iterative solver
           165 MiB given to the printing process from OS
             0 MiB allocation reported by mallinfo(arena+hblkhd)
       1940485 MiB available memory on the node where the printing process lives
------------------
     ethr =  3.40E-09,  avg # of iterations =  4.4


     -----------------------------------------------
     Non-local corr. energy    =       0.40270334 Ry
     -----------------------------------------------


     total cpu time spent up to now is        4.5 secs

     total energy              =    -899.73022691 Ry
     estimated scf accuracy    <       0.00000005 Ry

     iteration #  7     ecut=   120.00 Ry     beta= 0.70
     Davidson diagonalization with overlap

---- Real-time Memory Report at c_bands before calling an iterative solver
           165 MiB given to the printing process from OS
             0 MiB allocation reported by mallinfo(arena+hblkhd)
       1940473 MiB available memory on the node where the printing process lives
------------------
     c_bands:  1 eigenvalues not converged
     ethr =  2.64E-10,  avg # of iterations =  6.7


     -----------------------------------------------
     Non-local corr. energy    =       0.40270546 Ry
     -----------------------------------------------


     total cpu time spent up to now is        5.1 secs

     total energy              =    -899.73022445 Ry
     estimated scf accuracy    <       0.00000003 Ry

     iteration #  8     ecut=   120.00 Ry     beta= 0.70
     Davidson diagonalization with overlap

---- Real-time Memory Report at c_bands before calling an iterative solver
           165 MiB given to the printing process from OS
             0 MiB allocation reported by mallinfo(arena+hblkhd)
       1940462 MiB available memory on the node where the printing process lives
------------------
     c_bands:  1 eigenvalues not converged
     ethr =  1.42E-10,  avg # of iterations =  3.2


     -----------------------------------------------
     Non-local corr. energy    =       0.40270680 Ry
     -----------------------------------------------


     total cpu time spent up to now is        5.6 secs

     End of self-consistent calculation

          k = 0.0000 0.0000 0.0000 ( 19837 PWs)   bands (ev):

   -23.6882 -23.6277  -8.9292  -8.9292  -8.9292  -8.6601  -8.6601  -8.6601
     2.7052   4.9100

     occupation numbers 
     1.0000   1.0000   1.0000   1.0000   1.0000   1.0000   1.0000   1.0000
     1.0000   1.0000

          k = 0.0000 0.0000 0.1000 ( 19749 PWs)   bands (ev):

   -23.6865 -23.6289  -8.9293  -8.9224  -8.9224  -8.6739  -8.6664  -8.6664
     2.7936   4.9606

     occupation numbers 
     1.0000   1.0000   1.0000   1.0000   1.0000   1.0000   1.0000   1.0000
     1.0000   1.0000

          k = 0.0000 0.0000 0.2000 ( 19761 PWs)   bands (ev):

   -23.6817 -23.6327  -8.9276  -8.9025  -8.9025  -8.7115  -8.6847  -8.6847
     3.0499   5.0810

     occupation numbers 
     1.0000   1.0000   1.0000   1.0000   1.0000   1.0000   1.0000   1.0000
     1.0000   1.0000

          k = 0.0000 0.0000 0.3000 ( 19742 PWs)   bands (ev):

   -23.6744 -23.6388  -8.9195  -8.8719  -8.8719  -8.7636  -8.7135  -8.7135
     3.4478   5.1172

     occupation numbers 
     1.0000   1.0000   1.0000   1.0000   1.0000   1.0000   1.0000   1.0000
     1.0000   1.0000

          k = 0.0000 0.0000 0.4000 ( 19742 PWs)   bands (ev):

   -23.6654 -23.6467  -8.8999  -8.8336  -8.8336  -8.8184  -8.7503  -8.7503
     3.9433   4.9069

     occupation numbers 
     1.0000   1.0000   1.0000   1.0000   1.0000   1.0000   1.0000   1.0000
     1.0000   1.0000

          k = 0.0000 0.0000-0.5000 ( 19738 PWs)   bands (ev):

   -23.6559 -23.6558  -8.8660  -8.8658  -8.7917  -8.7917  -8.7915  -8.7915
     4.4673   4.4673

     occupation numbers 
     1.0000   1.0000   1.0000   1.0000   1.0000   1.0000   1.0000   1.0000
     1.0000   1.0000

          k = 0.0000 0.1000 0.1000 ( 19749 PWs)   bands (ev):

   -23.6849 -23.6301  -8.9405  -8.9158  -8.9048  -8.6991  -8.6723  -8.6603
     2.8798   5.0077

     occupation numbers 
     1.0000   1.0000   1.0000   1.0000   1.0000   1.0000   1.0000   1.0000
     1.0000   1.0000

          k = 0.0000 0.1000 0.2000 ( 19747 PWs)   bands (ev):

   -23.6803 -23.6337  -8.9479  -8.8968  -8.8774  -8.7443  -8.6896  -8.6686
     3.1294   5.1234

     occupation numbers 
     1.0000   1.0000   1.0000   1.0000   1.0000   1.0000   1.0000   1.0000
     1.0000   1.0000

          k = 0.0000 0.1000 0.3000 ( 19733 PWs)   bands (ev):

   -23.6733 -23.6394  -8.9459  -8.8675  -8.8431  -8.7992  -8.7168  -8.6911
     3.5154   5.1567

     occupation numbers 
     1.0000   1.0000   1.0000   1.0000   1.0000   1.0000   1.0000   1.0000
     1.0000   1.0000

          k = 0.0000 0.1000 0.4000 ( 19773 PWs)   bands (ev):

   -23.6647 -23.6469  -8.9306  -8.8539  -8.8309  -8.8038  -8.7517  -8.7238
     3.9944   4.9356

     occupation numbers 
     1.0000   1.0000   1.0000   1.0000   1.0000   1.0000   1.0000   1.0000
     1.0000   1.0000

          k = 0.0000 0.1000-0.5000 ( 19766 PWs)   bands (ev):

   -23.6557 -23.6555  -8.8996  -8.8995  -8.7911  -8.7909  -8.7628  -8.7627
     4.5015   4.5015

     occupation numbers 
     1.0000   1.0000   1.0000   1.0000   1.0000   1.0000   1.0000   1.0000
     1.0000   1.0000

          k = 0.0000 0.2000 0.2000 ( 19734 PWs)   bands (ev):

   -23.6763 -23.6366  -8.9698  -8.8803  -8.8399  -8.7988  -8.7039  -8.6608
     3.3574   5.1893

     occupation numbers 
     1.0000   1.0000   1.0000   1.0000   1.0000   1.0000   1.0000   1.0000
     1.0000   1.0000

          k = 0.0000 0.2000 0.3000 ( 19722 PWs)   bands (ev):

   -23.6702 -23.6414  -8.9809  -8.8581  -8.8549  -8.7997  -8.7267  -8.6688
     3.7047   5.1748

     occupation numbers 
     1.0000   1.0000   1.0000   1.0000   1.0000   1.0000   1.0000   1.0000
     1.0000   1.0000

          k = 0.0000 0.2000 0.4000 ( 19764 PWs)   bands (ev):

   -23.6628 -23.6477  -8.9762  -8.9122  -8.8235  -8.7594  -8.7560  -8.6903
     4.1262   4.9496

     occupation numbers 
     1.0000   1.0000   1.0000   1.0000   1.0000   1.0000   1.0000   1.0000
     1.0000   1.0000

          k = 0.0000 0.2000-0.5000 ( 19732 PWs)   bands (ev):

   -23.6551 -23.6550  -8.9531  -8.9531  -8.7894  -8.7893  -8.7217  -8.7217
     4.5652   4.5652

     occupation numbers 
     1.0000   1.0000   1.0000   1.0000   1.0000   1.0000   1.0000   1.0000
     1.0000   1.0000

          k = 0.0000 0.3000 0.3000 ( 19718 PWs)   bands (ev):

   -23.6656 -23.6447  -9.0056  -8.9176  -8.8358  -8.7574  -8.7425  -8.6614
     3.9781   5.0689

     occupation numbers 
     1.0000   1.0000   1.0000   1.0000   1.0000   1.0000   1.0000   1.0000
     1.0000   1.0000

          k = 0.0000 0.3000 0.4000 ( 19725 PWs)   bands (ev):

   -23.6601 -23.6491  -9.0135  -8.9677  -8.8123  -8.7633  -8.7197  -8.6689
     4.2859   4.8578

     occupation numbers 
     1.0000   1.0000   1.0000   1.0000   1.0000   1.0000   1.0000   1.0000
     1.0000   1.0000

          k = 0.0000 0.3000-0.5000 ( 19730 PWs)   bands (ev):

   -23.6544 -23.6543  -9.0009  -9.0009  -8.7874  -8.7872  -8.6893  -8.6892
     4.5870   4.5871

     occupation numbers 
     1.0000   1.0000   1.0000   1.0000   1.0000   1.0000   1.0000   1.0000
     1.0000   1.0000

          k = 0.0000 0.4000 0.4000 ( 19716 PWs)   bands (ev):

   -23.6569 -23.6511  -9.0342  -9.0103  -8.7991  -8.7733  -8.6888  -8.6619
     4.4310   4.7101

     occupation numbers 
     1.0000   1.0000   1.0000   1.0000   1.0000   1.0000   1.0000   1.0000
     1.0000   1.0000

          k = 0.0000 0.4000-0.5000 ( 19740 PWs)   bands (ev):

   -23.6539 -23.6537  -9.0335  -9.0335  -8.7857  -8.7855  -8.6690  -8.6690
     4.5653   4.5653

     occupation numbers 
     1.0000   1.0000   1.0000   1.0000   1.0000   1.0000   1.0000   1.0000
     1.0000   1.0000

          k = 0.0000-0.5000-0.5000 ( 19704 PWs)   bands (ev):

   -23.6537 -23.6535  -9.0450  -9.0450  -8.7851  -8.7849  -8.6622  -8.6622
     4.5503   4.5503

     occupation numbers 
     1.0000   1.0000   1.0000   1.0000   1.0000   1.0000   1.0000   1.0000
     1.0000   1.0000

          k = 0.1000 0.1000 0.1000 ( 19750 PWs)   bands (ev):

   -23.6834 -23.6313  -8.9334  -8.9334  -8.8822  -8.7220  -8.6668  -8.6668
     2.9643   5.0655

     occupation numbers 
     1.0000   1.0000   1.0000   1.0000   1.0000   1.0000   1.0000   1.0000
     1.0000   1.0000

          k = 0.1000 0.1000 0.2000 ( 19740 PWs)   bands (ev):

   -23.6790 -23.6346  -8.9486  -8.9128  -8.8509  -8.7677  -8.6860  -8.6696
     3.2084   5.1890

     occupation numbers 
     1.0000   1.0000   1.0000   1.0000   1.0000   1.0000   1.0000   1.0000
     1.0000   1.0000

          k = 0.1000 0.1000 0.3000 ( 19733 PWs)   bands (ev):

   -23.6722 -23.6400  -8.9534  -8.8809  -8.8220  -8.8161  -8.7160  -8.6851
     3.5847   5.2133

     occupation numbers 
     1.0000   1.0000   1.0000   1.0000   1.0000   1.0000   1.0000   1.0000
     1.0000   1.0000

          k = 0.1000 0.1000 0.4000 ( 19754 PWs)   bands (ev):

   -23.6641 -23.6471  -8.9436  -8.8747  -8.8411  -8.7793  -8.7544  -8.7107
     4.0499   4.9760

     occupation numbers 
     1.0000   1.0000   1.0000   1.0000   1.0000   1.0000   1.0000   1.0000
     1.0000   1.0000

          k = 0.1000 0.1000-0.5000 ( 19786 PWs)   bands (ev):

   -23.6555 -23.6553  -8.9171  -8.9170  -8.7976  -8.7974  -8.7432  -8.7431
     4.5432   4.5432

     occupation numbers 
     1.0000   1.0000   1.0000   1.0000   1.0000   1.0000   1.0000   1.0000
     1.0000   1.0000

          k = 0.1000 0.2000 0.2000 ( 19726 PWs)   bands (ev):

   -23.6751 -23.6374  -8.9621  -8.9055  -8.8158  -8.8148  -8.6980  -8.6681
     3.4349   5.2667

     occupation numbers 
     1.0000   1.0000   1.0000   1.0000   1.0000   1.0000   1.0000   1.0000
     1.0000   1.0000

          k = 0.1000 0.2000 0.3000 ( 19733 PWs)   bands (ev):

   -23.6693 -23.6419  -8.9752  -8.8774  -8.8700  -8.7786  -8.7242  -8.6739
     3.7786   5.2606

     occupation numbers 
     1.0000   1.0000   1.0000   1.0000   1.0000   1.0000   1.0000   1.0000
     1.0000   1.0000

          k = 0.1000 0.2000 0.4000 ( 19738 PWs)   bands (ev):

   -23.6623 -23.6478  -8.9746  -8.9195  -8.8402  -8.7591  -8.7443  -8.6897
     4.1939   5.0179

     occupation numbers 
     1.0000   1.0000   1.0000   1.0000   1.0000   1.0000   1.0000   1.0000
     1.0000   1.0000

          k = 0.1000 0.2000-0.5000 ( 19726 PWs)   bands (ev):

   -23.6549 -23.6548  -8.9560  -8.9559  -8.7993  -8.7991  -8.7140  -8.7140
     4.6272   4.6272

     occupation numbers 
     1.0000   1.0000   1.0000   1.0000   1.0000   1.0000   1.0000   1.0000
     1.0000   1.0000

          k = 0.1000 0.3000 0.3000 ( 19728 PWs)   bands (ev):

   -23.6649 -23.6450  -8.9970  -8.9224  -8.8567  -8.7436  -8.7418  -8.6696
     4.0575   5.1575

     occupation numbers 
     1.0000   1.0000   1.0000   1.0000   1.0000   1.0000   1.0000   1.0000
     1.0000   1.0000

          k = 0.1000 0.3000 0.4000 ( 19728 PWs)   bands (ev):

   -23.6596 -23.6491  -9.0060  -8.9671  -8.8277  -8.7665  -8.7137  -8.6754
     4.3684   4.9413

     occupation numbers 
     1.0000   1.0000   1.0000   1.0000   1.0000   1.0000   1.0000   1.0000
     1.0000   1.0000

          k = 0.1000 0.3000-0.5000 ( 19712 PWs)   bands (ev):

   -23.6542 -23.6541  -8.9962  -8.9962  -8.7963  -8.7962  -8.6906  -8.6906
     4.6693   4.6693

     occupation numbers 
     1.0000   1.0000   1.0000   1.0000   1.0000   1.0000   1.0000   1.0000
     1.0000   1.0000

          k = 0.1000 0.4000 0.4000 ( 19724 PWs)   bands (ev):

   -23.6566 -23.6510  -9.0250  -9.0048  -8.8105  -8.7778  -8.6907  -8.6709
     4.5222   4.7984

     occupation numbers 
     1.0000   1.0000   1.0000   1.0000   1.0000   1.0000   1.0000   1.0000
     1.0000   1.0000

          k = 0.1000 0.4000-0.5000 ( 19742 PWs)   bands (ev):

   -23.6537 -23.6535  -9.0251  -9.0251  -8.7930  -8.7928  -8.6762  -8.6762
     4.6569   4.6569

     occupation numbers 
     1.0000   1.0000   1.0000   1.0000   1.0000   1.0000   1.0000   1.0000
     1.0000   1.0000

          k = 0.1000-0.5000-0.5000 ( 19724 PWs)   bands (ev):

   -23.6535 -23.6533  -9.0356  -9.0356  -8.7916  -8.7914  -8.6714  -8.6714
     4.6441   4.6441

     occupation numbers 
     1.0000   1.0000   1.0000   1.0000   1.0000   1.0000   1.0000   1.0000
     1.0000   1.0000

          k = 0.2000 0.2000 0.2000 ( 19735 PWs)   bands (ev):

   -23.6718 -23.6397  -8.9395  -8.9395  -8.8547  -8.7796  -8.6893  -8.6893
     3.6554   5.4472

     occupation numbers 
     1.0000   1.0000   1.0000   1.0000   1.0000   1.0000   1.0000   1.0000
     1.0000   1.0000

          k = 0.2000 0.2000 0.3000 ( 19749 PWs)   bands (ev):

   -23.6667 -23.6434  -8.9647  -8.9046  -8.8999  -8.7480  -8.7227  -8.6862
     3.9849   5.4637

     occupation numbers 
     1.0000   1.0000   1.0000   1.0000   1.0000   1.0000   1.0000   1.0000
     1.0000   1.0000

          k = 0.2000 0.2000 0.4000 ( 19766 PWs)   bands (ev):

   -23.6606 -23.6484  -8.9748  -8.9398  -8.8608  -8.7652  -8.7221  -8.6907
     4.3737   5.1570

     occupation numbers 
     1.0000   1.0000   1.0000   1.0000   1.0000   1.0000   1.0000   1.0000
     1.0000   1.0000

          k = 0.2000 0.2000-0.5000 ( 19718 PWs)   bands (ev):

   -23.6544 -23.6542  -8.9664  -8.9664  -8.8129  -8.8127  -8.7028  -8.7027
     4.7736   4.7736

     occupation numbers 
     1.0000   1.0000   1.0000   1.0000   1.0000   1.0000   1.0000   1.0000
     1.0000   1.0000

          k = 0.2000 0.3000 0.3000 ( 19740 PWs)   bands (ev):

   -23.6628 -23.6459  -8.9722  -8.9357  -8.8959  -8.7383  -8.7233  -8.6935
     4.2791   5.3998

     occupation numbers 
     1.0000   1.0000   1.0000   1.0000   1.0000   1.0000   1.0000   1.0000
     1.0000   1.0000

          k = 0.2000 0.3000 0.4000 ( 19730 PWs)   bands (ev):

   -23.6583 -23.6494  -8.9851  -8.9665  -8.8597  -8.7730  -8.7065  -8.6942
     4.5968   5.1620

     occupation numbers 
     1.0000   1.0000   1.0000   1.0000   1.0000   1.0000   1.0000   1.0000
     1.0000   1.0000

          k = 0.2000 0.3000-0.5000 ( 19740 PWs)   bands (ev):

   -23.6537 -23.6535  -8.9843  -8.9843  -8.8160  -8.8159  -8.6974  -8.6973
     4.8908   4.8908

     occupation numbers 
     1.0000   1.0000   1.0000   1.0000   1.0000   1.0000   1.0000   1.0000
     1.0000   1.0000

          k = 0.2000 0.4000 0.4000 ( 19712 PWs)   bands (ev):

   -23.6556 -23.6509  -8.9983  -8.9898  -8.8388  -8.7878  -8.6991  -8.6969
     4.7812   5.0426

     occupation numbers 
     1.0000   1.0000   1.0000   1.0000   1.0000   1.0000   1.0000   1.0000
     1.0000   1.0000

          k = 0.2000 0.4000-0.5000 ( 19750 PWs)   bands (ev):

   -23.6531 -23.6530  -9.0013  -9.0013  -8.8116  -8.8114  -8.6973  -8.6973
     4.9153   4.9153

     occupation numbers 
     1.0000   1.0000   1.0000   1.0000   1.0000   1.0000   1.0000   1.0000
     1.0000   1.0000

          k = 0.2000-0.5000-0.5000 ( 19768 PWs)   bands (ev):

   -23.6529 -23.6527  -9.0082  -9.0082  -8.8086  -8.8084  -8.6983  -8.6983
     4.9106   4.9106

     occupation numbers 
     1.0000   1.0000   1.0000   1.0000   1.0000   1.0000   1.0000   1.0000
     1.0000   1.0000

          k = 0.3000 0.3000 0.3000 ( 19780 PWs)   bands (ev):

   -23.6598 -23.6475  -8.9534  -8.9335  -8.9335  -8.7310  -8.7310  -8.7106
     4.5905   5.6018

     occupation numbers 
     1.0000   1.0000   1.0000   1.0000   1.0000   1.0000   1.0000   1.0000
     1.0000   1.0000

          k = 0.3000 0.3000 0.4000 ( 19756 PWs)   bands (ev):

   -23.6564 -23.6499  -8.9680  -8.9603  -8.8850  -8.7785  -8.7211  -8.7074
     4.9035   5.3735

     occupation numbers 
     1.0000   1.0000   1.0000   1.0000   1.0000   1.0000   1.0000   1.0000
     1.0000   1.0000

          k = 0.3000 0.3000-0.5000 ( 19762 PWs)   bands (ev):

   -23.6530 -23.6528  -8.9719  -8.9718  -8.8317  -8.8315  -8.7120  -8.7120
     5.1526   5.1526

     occupation numbers 
     1.0000   1.0000   1.0000   1.0000   1.0000   1.0000   1.0000   1.0000
     1.0000   1.0000

          k = 0.3000 0.4000 0.4000 ( 19762 PWs)   bands (ev):

   -23.6543 -23.6509  -8.9696  -8.9567  -8.8731  -8.7947  -8.7377  -8.7169
     5.1566   5.3623

     occupation numbers 
     1.0000   1.0000   1.0000   1.0000   1.0000   1.0000   1.0000   1.0000
     1.0000   1.0000

          k = 0.3000 0.4000-0.5000 ( 19742 PWs)   bands (ev):

   -23.6524 -23.6523  -8.9661  -8.9661  -8.8332  -8.8330  -8.7305  -8.7305
     5.2819   5.2819

     occupation numbers 
     1.0000   1.0000   1.0000   1.0000   1.0000   1.0000   1.0000   1.0000
     1.0000   1.0000

          k = 0.3000-0.5000-0.5000 ( 19752 PWs)   bands (ev):

   -23.6522 -23.6521  -8.9655  -8.9655  -8.8295  -8.8293  -8.7402  -8.7402
     5.2982   5.2982

     occupation numbers 
     1.0000   1.0000   1.0000   1.0000   1.0000   1.0000   1.0000   1.0000
     1.0000   1.0000

          k = 0.4000 0.4000 0.4000 ( 19760 PWs)   bands (ev):

   -23.6529 -23.6511  -8.9493  -8.9044  -8.9044  -8.7893  -8.7893  -8.7424
     5.5176   5.5625

     occupation numbers 
     1.0000   1.0000   1.0000   1.0000   1.0000   1.0000   1.0000   1.0000
     1.0000   1.0000

          k = 0.4000 0.4000-0.5000 ( 19754 PWs)   bands (ev):

   -23.6519 -23.6517  -8.9292  -8.9291  -8.8468  -8.8466  -8.7695  -8.7695
     5.6055   5.6055

     occupation numbers 
     1.0000   1.0000   1.0000   1.0000   1.0000   1.0000   1.0000   1.0000
     1.0000   1.0000

          k = 0.4000-0.5000-0.5000 ( 19716 PWs)   bands (ev):

   -23.6517 -23.6515  -8.9118  -8.9118  -8.8462  -8.8460  -8.7934  -8.7934
     5.6911   5.6911

     occupation numbers 
     1.0000   1.0000   1.0000   1.0000   1.0000   1.0000   1.0000   1.0000
     1.0000   1.0000

          k =-0.5000-0.5000-0.5000 ( 19760 PWs)   bands (ev):

   -23.6515 -23.6513  -8.8526  -8.8526  -8.8526  -8.8524  -8.8524  -8.8524
     5.8737   5.8737

     occupation numbers 
     1.0000   1.0000   1.0000   1.0000   1.0000   1.0000   1.0000   1.0000
     1.0000   1.0000

     highest occupied level (ev):     5.8737

!    total energy              =    -899.73022739 Ry
     total all-electron energy =    -32569.916465 Ry
     estimated scf accuracy    <          1.6E-09 Ry

     The total energy is the sum of the following terms:
     one-electron contribution =     -24.42612547 Ry
     hartree contribution      =      18.01144196 Ry
     xc contribution           =     -41.69909646 Ry
     ewald contribution        =     -75.68910616 Ry
     one-center paw contrib.   =    -775.92734125 Ry
      -> PAW hartree energy AE =      29.23872923 Ry
      -> PAW hartree energy PS =     -29.11654522 Ry
      -> PAW xc energy AE      =    -408.13445472 Ry
      -> PAW xc energy PS      =      20.04860375 Ry
      -> total E_H with PAW    =      18.13362597 Ry
      -> total E_XC with PAW   =    -429.78494743 Ry

     convergence has been achieved in   8 iterations


     -----------------------------------------------
     Non-local corr. energy    =       0.40270680 Ry
     -----------------------------------------------


     Forces acting on atoms (cartesian axes, Ry/au):

     atom    1 type  1   force =     0.00000000    0.00000000    0.00000000
     atom    2 type  1   force =     0.00000000    0.00000000    0.00000000
     The non-local contrib.  to forces
     atom    1 type  1   force =     0.00000000    0.00000000    0.00000000
     atom    2 type  1   force =     0.00000000    0.00000000    0.00000000
     The ionic contribution  to forces
     atom    1 type  1   force =    -0.00000002   -0.00000002   -0.00000002
     atom    2 type  1   force =     0.00000002    0.00000002    0.00000002
     The local contribution  to forces
     atom    1 type  1   force =     0.00000000    0.00000000   -0.00000000
     atom    2 type  1   force =     0.00000027    0.00000027    0.00000027
     The core correction contribution to forces
     atom    1 type  1   force =     0.00000000    0.00000000    0.00000000
     atom    2 type  1   force =    -0.00000003   -0.00000003   -0.00000003
     The Hubbard contrib.    to forces
     atom    1 type  1   force =     0.00000000    0.00000000    0.00000000
     atom    2 type  1   force =     0.00000000    0.00000000    0.00000000
     The SCF correction term to forces
     atom    1 type  1   force =     0.00000000    0.00000000    0.00000000
     atom    2 type  1   force =    -0.00000000   -0.00000000   -0.00000000

     Total force =     0.000000     Total SCF correction =     0.000000


     Computing stress (Cartesian axis) and pressure



     -----------------------------------------------
     Non-local corr. energy    =       0.40270680 Ry
     -----------------------------------------------

          total   stress  (Ry/bohr**3)                   (kbar)     P=        0.03
   0.00000017   0.00000000   0.00000000            0.03        0.00        0.00
   0.00000000   0.00000017   0.00000000            0.00        0.03        0.00
   0.00000000   0.00000000   0.00000017            0.00        0.00        0.03

     kinetic stress (kbar)   3875.99      0.00      0.00
                                0.00   3875.99      0.00
                                0.00      0.00   3875.99

     local   stress (kbar)  -1838.16     -0.00     -0.00
                               -0.00  -1838.16     -0.00
                               -0.00     -0.00  -1838.16

     nonloc. stress (kbar)   2411.78      0.00      0.00
                                0.00   2411.78      0.00
                                0.00      0.00   2411.78

     hartree stress (kbar)    993.20      0.00      0.00
                                0.00    993.20      0.00
                                0.00      0.00    993.20

     exc-cor stress (kbar)   3126.07     -0.00     -0.00
                               -0.00   3126.07     -0.00
                               -0.00     -0.00   3126.07

     corecor stress (kbar)  -4418.36      0.00      0.00
                                0.00  -4418.36      0.00
                                0.00      0.00  -4418.36

     ewald   stress (kbar)  -4173.69      0.00     -0.00
                                0.00  -4173.69     -0.00
                               -0.00     -0.00  -4173.69

     hubbard stress (kbar)      0.00      0.00      0.00
                                0.00      0.00      0.00
                                0.00      0.00      0.00

     DFT-D   stress (kbar)      0.00      0.00      0.00
                                0.00      0.00      0.00
                                0.00      0.00      0.00

     XDM     stress (kbar)      0.00      0.00      0.00
                                0.00      0.00      0.00
                                0.00      0.00      0.00

     dft-nl  stress (kbar)     23.19     -0.00     -0.00
                               -0.00     23.19     -0.00
                               -0.00     -0.00     23.19

     TS-vdW  stress (kbar)      0.00      0.00      0.00
                                0.00      0.00      0.00
                                0.00      0.00      0.00

     MDB     stress (kbar)      0.00      0.00      0.00
                                0.00      0.00      0.00
                                0.00      0.00      0.00

     3D-RISM stress (kbar)      0.00      0.00      0.00
                                0.00      0.00      0.00
                                0.00      0.00      0.00



     -----------------------------------------------
     Non-local corr. energy    =       0.40270680 Ry
     -----------------------------------------------



     -----------------------------------------------
     Non-local corr. energy    =       0.40270680 Ry
     -----------------------------------------------



     -----------------------------------------------
     Non-local corr. energy    =       0.40270680 Ry
     -----------------------------------------------



     -----------------------------------------------
     Non-local corr. energy    =       0.40270680 Ry
     -----------------------------------------------



     -----------------------------------------------
     Non-local corr. energy    =       0.40270680 Ry
     -----------------------------------------------



     -----------------------------------------------
     Non-local corr. energy    =       0.40270680 Ry
     -----------------------------------------------



     -----------------------------------------------
     Non-local corr. energy    =       0.40270680 Ry
     -----------------------------------------------



     -----------------------------------------------
     Non-local corr. energy    =       0.40270680 Ry
     -----------------------------------------------



     -----------------------------------------------
     Non-local corr. energy    =       0.40270680 Ry
     -----------------------------------------------



     -----------------------------------------------
     Non-local corr. energy    =       0.40270680 Ry
     -----------------------------------------------



     -----------------------------------------------
     Non-local corr. energy    =       0.40270680 Ry
     -----------------------------------------------



     -----------------------------------------------
     Non-local corr. energy    =       0.40270680 Ry
     -----------------------------------------------



     -----------------------------------------------
     Non-local corr. energy    =       0.40270680 Ry
     -----------------------------------------------



     -----------------------------------------------
     Non-local corr. energy    =       0.40270680 Ry
     -----------------------------------------------



     -----------------------------------------------
     Non-local corr. energy    =       0.40270680 Ry
     -----------------------------------------------



     -----------------------------------------------
     Non-local corr. energy    =       0.40270680 Ry
     -----------------------------------------------



     -----------------------------------------------
     Non-local corr. energy    =       0.40270680 Ry
     -----------------------------------------------



     -----------------------------------------------
     Non-local corr. energy    =       0.40270680 Ry
     -----------------------------------------------



     -----------------------------------------------
     Non-local corr. energy    =       0.40270680 Ry
     -----------------------------------------------



     -----------------------------------------------
     Non-local corr. energy    =       0.40270680 Ry
     -----------------------------------------------



     -----------------------------------------------
     Non-local corr. energy    =       0.40270680 Ry
     -----------------------------------------------



     -----------------------------------------------
     Non-local corr. energy    =       0.40270680 Ry
     -----------------------------------------------



     -----------------------------------------------
     Non-local corr. energy    =       0.40270680 Ry
     -----------------------------------------------



     -----------------------------------------------
     Non-local corr. energy    =       0.40270680 Ry
     -----------------------------------------------



     -----------------------------------------------
     Non-local corr. energy    =       0.40270680 Ry
     -----------------------------------------------



     -----------------------------------------------
     Non-local corr. energy    =       0.40270680 Ry
     -----------------------------------------------



     -----------------------------------------------
     Non-local corr. energy    =       0.40270680 Ry
     -----------------------------------------------



     -----------------------------------------------
     Non-local corr. energy    =       0.40270680 Ry
     -----------------------------------------------



     -----------------------------------------------
     Non-local corr. energy    =       0.40270680 Ry
     -----------------------------------------------



     -----------------------------------------------
     Non-local corr. energy    =       0.40270680 Ry
     -----------------------------------------------



     -----------------------------------------------
     Non-local corr. energy    =       0.40270680 Ry
     -----------------------------------------------



     -----------------------------------------------
     Non-local corr. energy    =       0.40270680 Ry
     -----------------------------------------------



     -----------------------------------------------
     Non-local corr. energy    =       0.40270680 Ry
     -----------------------------------------------



     -----------------------------------------------
     Non-local corr. energy    =       0.40270680 Ry
     -----------------------------------------------

 BEEFens 2000 ensemble energies
             -0.457976283785522E+00
             -0.364490820973935E+01
             -0.149268282967935E+01
              0.124767342449362E+01
             -0.228757329623018E+01
             -0.300837043478853E+01
              0.156339502136554E+01
             -0.162404481886279E+00
              0.275976857892685E+01
             -0.110624544566091E+00
              0.999721429112740E+00
              0.339866250389491E-01
              0.303429549952771E+00
              0.501722841996788E-02
              0.175920802863815E+01
             -0.138939761991166E+01
             -0.289082846630068E+01
             -0.931741649160960E+00
              0.641607347257583E+00
             -0.660166300179910E-01
              0.375438562768517E+01
              0.353029771329414E+01
             -0.172146836952122E+01
              0.842944413363494E+00
             -0.411084058377649E+01
              0.331990265389265E+01
              0.110587956932733E+01
              0.343265560339344E+01
              0.234004054320307E+01
             -0.117319226027924E+01
              0.764813556159911E+00
             -0.189915079326200E+01
              0.291332437558778E+00
              0.202851956432043E+01
              0.219311450637644E+01
             -0.884512679391388E+00
              0.501638875681782E+01
             -0.166790017173271E+01
             -0.144131768810869E+01
              0.190737430403125E+01
              0.938610414107792E+00
              0.134053555258137E+01
             -0.274171143376280E+01
             -0.117266950440154E+00
              0.284884301286508E+01
              0.355925112299771E+01
             -0.352046578243810E+01
              0.373743943332842E+00
              0.152025949277117E+01
              0.398969639669016E+00
              0.152660997402577E+01
              0.325614055053410E+01
             -0.178777096999771E+01
             -0.180532943785805E+01
             -0.256197846357421E+01
             -0.526647255802722E+00
             -0.252687669140021E+01
              0.139553852545482E+00
             -0.703973382045053E+00
             -0.200022874891676E+01
              0.338419293544302E+01
              0.301692539916579E+01
             -0.815956342600716E+00
             -0.233345651038731E+01
             -0.123303586090364E+01
             -0.909814717795918E-01
              0.251376839964027E+01
             -0.538519314600082E+00
             -0.245794776082015E+01
              0.222224358266159E+01
             -0.373821780256165E+01
              0.295495868178408E+01
             -0.376913525967877E+01
             -0.173802797822924E+01
             -0.510153046682504E+00
             -0.337438594023955E+00
             -0.414058185671049E-01
              0.309701191034665E+01
              0.161342713120691E+01
             -0.299341716398383E+01
             -0.341708478874537E+01
             -0.191963372573563E+01
             -0.154625167777013E+01
              0.377390308271060E+00
             -0.733255223959855E+00
             -0.118327255928283E+01
              0.235337910777822E+01
             -0.111226369617126E+01
              0.533572013252429E+01
             -0.244430580511692E+01
              0.394432336764434E+00
              0.580965451642587E+00
              0.107289989993996E+01
              0.224214949867367E+01
              0.146694843894037E+01
              0.134906091868922E+01
             -0.229864301382360E+01
              0.114215625088232E+01
              0.128065284154097E+00
              0.948566166086771E-01
              0.242921382553485E+01
             -0.322564559441066E+01
              0.506089078698216E+01
             -0.151822108800772E+01
             -0.572994266040518E+01
              0.162314025519553E+00
              0.324807730630013E+00
             -0.148450925724721E+01
             -0.282138257545542E+01
             -0.147708588794997E+01
             -0.114172329413167E+01
              0.338009380204340E-02
             -0.224915688836950E+01
              0.288596944752840E+00
              0.119391357059381E+00
              0.494395417606649E+00
              0.493336497932901E+01
              0.650220726296923E+00
             -0.275198099350996E+01
             -0.220512421196812E+01
             -0.463910718925587E+00
             -0.182861188418458E+01
              0.288079259119691E+01
             -0.234043041898632E+01
             -0.423492585371026E+00
             -0.633449774151915E+00
              0.562277557328336E+00
              0.156357697190028E+01
             -0.200916148672224E+01
             -0.436938811441984E+01
             -0.100362381852503E+01
             -0.796933293263699E+00
             -0.655559484359429E-01
              0.211883858229289E+01
             -0.384809615362381E+01
             -0.402356643622558E+01
             -0.728081697127491E+00
             -0.900187516327216E+00
              0.333968635948061E-01
              0.117794468559786E+01
              0.267417240358648E+01
              0.110487494063251E+01
             -0.128378293620667E+01
             -0.133638723512807E+01
             -0.365154823999111E+01
             -0.132796825114799E+00
             -0.174223835156446E+01
             -0.114771048012627E+01
              0.319782170210412E+01
             -0.248770640113234E+01
             -0.113404135736526E+01
              0.328154174109345E+01
             -0.254244528194651E+00
             -0.847977894524014E+00
              0.522312494028494E+00
              0.116268522810972E+01
             -0.174971565723251E+01
              0.106967258633008E+01
              0.407592602128094E+00
              0.192761496904322E+01
             -0.186266466499782E+01
             -0.115446941342270E+01
              0.233548673462980E+01
             -0.206013383976991E+00
             -0.108830094173409E+01
             -0.499511270909984E+00
             -0.982059451240279E+00
             -0.136848380341329E+01
             -0.344178901815342E+01
             -0.389002511084081E+01
             -0.144675549168276E+01
             -0.161856305377106E+01
             -0.187219725747771E+01
             -0.263542129623559E+01
             -0.117953774783511E+01
              0.200004651093993E+01
              0.719988574870051E+00
              0.307648248314754E+01
             -0.145543006720344E+01
              0.873690394668529E+00
              0.593654065353963E+00
             -0.325061178658911E+01
             -0.677692824657756E+00
              0.197773143624623E+01
             -0.578754165454081E+01
              0.106537890607137E+01
              0.951757395565225E+00
              0.329649617075731E+01
             -0.921870111676807E+00
              0.297558339849065E+01
              0.474920434615144E+01
              0.409269243444742E+01
             -0.203708031003286E+01
             -0.146693463278598E+01
             -0.101848594351773E+01
              0.129315949386660E+01
              0.470783217644088E+00
             -0.793596307370024E+00
[...]
              0.481257300523416E+01
              0.678740249978141E+00
             -0.697665436809938E+00
              0.375540022771077E+00
             -0.682636843231752E+00
              0.378028973684686E+01
              0.211512995279561E+00
              0.551933530762434E+00
              0.256261472381298E+01
              0.847713610533155E+00
             -0.201381746571766E+01
             -0.314550483504745E+01
              0.208833859624679E+00
             -0.363845190379384E+01
              0.106138954817941E+01
             -0.578179535692040E+00
             -0.103986120605938E+01
              0.119539029103715E+01
              0.408354891696842E+00
              0.124202563543713E+01
             -0.547305096264274E-01
              0.192983181663650E+01
             -0.344065411885206E+01
             -0.163323164273102E+00
             -0.298155472389897E+01
              0.795006377492438E+00
              0.170713484671680E+01
              0.416830365961296E-02
             -0.102892795492436E+01
              0.235810680559168E+01
             -0.123354247963937E+01
              0.798340083941948E+00
             -0.774745764141066E+00
              0.188854761755639E+01
              0.173583635224862E+01
             -0.838127085257042E+00
              0.196253954920802E+01
              0.772240739580027E+00
             -0.189627679884928E+01
             -0.116461000185816E+01
              0.273107619321478E+01
              0.136520080279122E+01
              0.127305199397630E+00
             -0.120752283779083E+00
              0.452723794919645E+01
              0.250670695986189E+01
              0.981246220631114E+00
             -0.264477942944619E+01
              0.430601526422932E+01
             -0.203008013906794E+01
             -0.258326293183212E+01
             -0.381490203364865E+01
              0.171037509676894E+01
             -0.347047537592988E+01
              0.165109089467757E+01
              0.255583558825385E+01
              0.179245689466461E+01
              0.542668534194597E+00
              0.108540886974452E+01
             -0.302841762121238E+01
             -0.115414075825635E+01
             -0.763377377148755E+00
              0.156406586371945E+01
              0.272247546029901E+01
              0.300289606897202E+01
              0.214820630153589E+01
             -0.458996386848327E+00
              0.605721874345367E+00
             -0.135608346838717E+00
             -0.953045889330211E+00
              0.100641591509994E+01
              0.124885743019734E+01
             -0.159987354668971E+01
             -0.201599942727181E+01
             -0.808137842078839E+00
              0.219668006967550E+01
              0.111279932280562E+01
             -0.160266164340617E+01
             -0.189678961078787E+01
             -0.299557270012459E+01
              0.232405555821122E-01
              0.659223311912022E+00
             -0.109173736334121E+01
              0.412439656213031E+01
              0.275056599791444E+00
             -0.494358420099241E+01
              0.110399736498912E+01
              0.217955096903936E+01
             -0.116717809747787E+01
              0.280421406804587E+00
             -0.141682703227933E+01
              0.200546243213265E+01
              0.101937771424981E+01
             -0.256508408971746E+01
              0.308081813234149E+01
             -0.949191422289113E-01
             -0.131356428010877E+01
             -0.174936763577439E+01
              0.624278790568295E+01
              0.265504637258758E+01
             -0.750092091509440E+00
              0.158220003983360E+01
             -0.279602038007587E+01
             -0.236636854325219E+00
             -0.278041484692248E+01
              0.116322799166361E+01
              0.161413225837794E+01
              0.224935493674666E+01
             -0.924461333499327E+00
              0.382386246016161E+00
              0.255070348678017E+01
              0.100355788315091E+01
              0.161591329045741E+01
              0.629408933419253E+00
             -0.594628769737220E+00
              0.250200576587645E-02
             -0.379612499913762E+00
              0.731315459359042E+00
             -0.227539310437059E-01
             -0.221099452911879E+01
              0.347187701805231E+01
              0.123257499364937E+01
             -0.254574554936392E+01
             -0.161163425807782E+01
             -0.274559436915047E+01
             -0.170474094700105E+01
             -0.104405576501020E+01
             -0.231388509147521E+01
             -0.209101895668241E+01
              0.262350328262503E+01
              0.207678594553768E+01
             -0.263770113240273E+00
              0.307258946880569E+01
              0.795187136591387E+00
             -0.486130574132394E+01
              0.263945119936280E+01
              0.618932883836951E+00
              0.220071288689020E+01
              0.673763827121714E+00
              0.237517490949103E+00
              0.459765178772194E+00
              0.965621937111786E+00
             -0.195082178969581E+01
             -0.103622098455458E+01
             -0.165791602506850E+01
             -0.138803026935405E+01
              0.883720818662258E+00
             -0.174543849490134E+01
              0.664480305055235E+00
              0.945482570033196E+00
             -0.108492750658352E+01
             -0.617266657303308E+00
             -0.903908330850598E-01
              0.311987613480232E+01
              0.464730715886978E+00
              0.307913631346263E+01
              0.823356641705328E+00
             -0.400221371701740E+01
             -0.147893251243720E+01
              0.125809415128675E+01
              0.275495785844292E+01
              0.582816077446163E+00
              0.107371110477410E+01
              0.287734824920369E+01
             -0.168183592573288E+01
             -0.241423432050127E+01
              0.342086240862673E+01
             -0.595656025885454E-01
             -0.365004235910492E+01
              0.116211201625953E+01
              0.268607962499317E+01
             -0.392009582227789E+00
             -0.223041679858893E+01
              0.445115697175561E+00
              0.280209298588531E+00
             -0.124797636038817E+01
              0.501389096177107E+00
             -0.576053650906617E+00
              0.530638737684368E+01
              0.147468741344061E+01
             -0.270046459034509E+01
              0.988049589348360E+00
              0.344709627089459E+01
             -0.217547642520031E+01
             -0.517963482879571E+00
             -0.184705250247562E+01
              0.134860540921536E+01
              0.765693469572586E+00
              0.823645738704791E+00
              0.105912700719358E+00
              0.375233490647573E+01
             -0.207545806172933E+01
             -0.158515733035059E+01
             -0.187420681898016E+01
              0.158876296827099E+01
              0.366453195586275E+01
             -0.338946874580712E+00
              0.164909525704936E+01
             -0.202421549060921E+01
              0.837592775704135E-01
             -0.634452625785452E+00
             -0.301785959484517E+00
             -0.987330220162145E+00
             -0.923476158209517E+00
             -0.555337752035873E+00
              0.858665964246086E+00
              0.109812978392657E+01
             -0.233460995062746E+01
              0.186076962120761E+01
             -0.277334983555486E+01
              0.235032830837619E+01
             -0.263466372524232E+01
              0.395442268805624E+01
              0.221396733439357E+01
              0.217310734864405E+01
              0.372144095675427E+00
              0.558017380797967E+00
             -0.503778592421352E+01
              0.119240203608149E+01
              0.216692261912204E+00
              0.501132611059461E+00
             -0.860232784301557E+00
              0.374328603127006E+01
             -0.125682335939639E+01
             -0.156076027388532E+01
             -0.427286149562127E+01
             -0.150926060530869E+01
             -0.176067030016474E+01
             -0.147996053168649E+01
             -0.615778016331497E+00
             -0.756385575880515E+00
             -0.110230641627410E+01
             -0.160164518054019E+01
              0.127822267465901E+01
              0.397967334523113E+01
              0.340790826315463E+01
             -0.849793985674125E+00
             -0.428943589696171E+01
             -0.178758798467300E+01
              0.843980564489084E+00
              0.798764255021590E+00
              0.128063170985472E+01
              0.107150318242199E+01
              0.499241026532378E+00
              0.393355268282208E+01
             -0.100127439464649E+01
              0.188892552087485E+01
              0.735922357276110E+00
             -0.120758115221035E+01
             -0.754785756804845E+00
              0.195010362959972E+01
             -0.114585075836617E+01
             -0.790941069478575E+00
             -0.439775948208798E+00
              0.240499788104750E+01
             -0.300504986268740E+01
             -0.359306164263828E+00
             -0.248860567791940E+01
             -0.547868687449707E+01
              0.180970728941485E+00
             -0.606507078094987E+00
              0.182630552519643E+01
              0.239183254663915E+01
              0.298081307884671E+01
             -0.209208301837359E+01
              0.319859242579037E+01
              0.843381109096856E+00
             -0.642985874555102E+00
              0.648063398955128E+00
             -0.119622151466611E+01
             -0.730485264114584E+00
              0.144579021886295E+01
             -0.161992284085349E+01
              0.381762800004814E+01
             -0.795503351204019E+00
             -0.193227854434918E+01
              0.404832530381526E+01
             -0.213347865729046E+01
             -0.388158806103000E+00
              0.572728165940015E+00
              0.134307238788205E+01
             -0.177374482179201E+01
             -0.134182622608246E+01
              0.205991424808800E+01
             -0.335647351654023E+01
              0.242222477933500E+01
              0.355641084812142E+00
              0.180774852160706E+01
              0.274056402124032E+01
              0.470560459100525E+00
             -0.320137670966940E+01
             -0.161567722364472E+01
             -0.233885666877218E+01
             -0.164738970773317E+01
             -0.727612154257390E+00
              0.443055200883522E+00
             -0.113326349457225E+01
              0.223995040859741E+00
             -0.419888059890763E+01
              0.222583712410968E+00
             -0.253789787784710E+01
              0.262697185231155E+01
             -0.135399535233704E+01
             -0.237359589136787E+00
              0.174017201113960E+01
              0.188885116986508E+00
              0.187713783743701E+01
             -0.310960593126427E+01
              0.644830465998254E+00
              0.245770769656886E+00
              0.111330291112865E+01
              0.211355134196342E+01
             -0.250655807845044E+00
             -0.256736823594843E+01
             -0.125902491529716E+01
             -0.114561793224316E+01
             -0.709264042338567E+00
              0.252430017796948E+01
              0.148520416050264E+01
             -0.156371175609480E+01
             -0.129691838237918E+01
              0.130008088825642E+01
              0.988964932818883E+00
             -0.290752520068584E+01
              0.990310760401637E+00
              0.239063475202188E+01
              0.477336586649844E-01
              0.246685223929711E+01
              0.136353710370036E+01
              0.215589786876996E+01
              0.293113949166081E+01
              0.683721744506197E+00
             -0.482862254223020E+01
              0.332717292278730E+00
              0.499587989682033E+01
              0.366661850707760E+01
             -0.247616656759198E+01
              0.194639388214623E+00
              0.284097633829583E+01
              0.306833118687780E+01
              0.128503028949209E+01
             -0.696185409414330E+00
              0.109464017663559E+01
              0.295219361196281E+01
             -0.133376451377071E+01
             -0.800435719365064E+00
              0.164298784315958E+01
             -0.121525348326884E+00
              0.143108778634948E+01
             -0.623163616446169E+00
              0.318943152853660E+01
             -0.141980755482535E+01
              0.638601545993119E+00
             -0.169734435903031E+01
              0.163908340641979E+01
             -0.138161699680502E+00
              0.236915931954325E+01
             -0.216400024167633E-01
              0.701138101647578E+00
             -0.159276983334364E+01
             -0.121446106617148E+01
             -0.499329408322701E+00
             -0.418529560403043E+00
              0.247246072429135E+01
              0.855036567793348E+00
              0.343116154376289E+01
              0.261547663620437E+01
              0.571611408410380E+00
              0.637678423585282E-01
              0.331968436098134E+01
              0.168709580865450E+01
             -0.207973269003444E+00
              0.276781326800829E+01
             -0.261810550747168E+01
              0.871991336057638E+00
             -0.167349127850607E+01
             -0.990927707136340E+00
              0.408795840563213E+01
             -0.730394620897165E+00
              0.286768680645260E-01
             -0.712411197115621E+00
              0.334368199880967E+01
             -0.848505232418880E+00
             -0.794344690430773E-01
              0.705045884755765E+01
             -0.224796149196846E+01
             -0.199699105564925E+01
             -0.251401965234886E+01
             -0.145152705809056E+01
              0.146652213547529E+01
             -0.709660793275869E+00
              0.456625173398296E+00
             -0.773500078964489E-01
              0.584497143566700E+00
              0.150783724550022E+01
              0.165828603790032E+01
              0.262238742720838E+01
              0.129423927301308E+01
              0.187782201544898E+01
             -0.273607390782386E+01
             -0.231143630771845E+01
             -0.642364745332711E+00
             -0.244933091121448E+01
              0.415889373975942E+01
              0.365420307759856E+01
              0.184022666158789E+01
              0.449306264068117E+01
             -0.245027916549985E+01
             -0.110078419839880E+01
             -0.124151579645528E+01
              0.362862584978494E+01
 
 BEEF-vdW xc energy contributions
            1 :    -35.75373935086213     
            2 :     32.22240400338323     
            3 :    -26.24361405559733     
            4 :     19.40064617133280     
            5 :    -13.01389484126259     
            6 :     7.696560154292662     
            7 :    -3.441850507664434     
            8 :    4.7889412918031837E-002
            9 :     2.517911404990748     
           10 :    -4.080027383823257     
           11 :     4.488729498576831     
           12 :    -3.856555919417552     
           13 :     2.574099757833849     
           14 :    -1.111440337790341     
           15 :   -0.2024943586526504     
           16 :     1.243696106996268     
           17 :    -1.990978648693940     
           18 :     2.398462018447695     
           19 :    -2.378065698347775     
           20 :     1.894434411711337     
           21 :    -1.056718174154476     
           22 :    0.1006005404928558     
           23 :    0.7317435847729072     
           24 :    -1.307382247169535     
           25 :     1.619078446379532     
           26 :    -1.708467518732810     
           27 :     1.587015006176706     
           28 :    -1.234027189014711     
           29 :    0.6627069781149189     
           30 :    2.6023410725777296E-002
           31 :    -4.120524712866626     
           32 :    -2.974651101989181     

     Writing all to output data dir ./Ba.save/
 
     init_run     :      0.57s CPU      0.63s WALL (       1 calls)
     electrons    :      4.33s CPU      4.70s WALL (       1 calls)
     forces       :      0.14s CPU      0.15s WALL (       1 calls)
     stress       :      0.31s CPU      0.34s WALL (       1 calls)

     Called by init_run:
     wfcinit      :      0.08s CPU      0.09s WALL (       1 calls)
     wfcinit:atom :      0.00s CPU      0.00s WALL (      14 calls)
     wfcinit:wfcr :      0.07s CPU      0.07s WALL (      14 calls)
     potinit      :      0.40s CPU      0.44s WALL (       1 calls)
     hinit0       :      0.03s CPU      0.03s WALL (       1 calls)

     Called by electrons:
     c_bands      :      2.86s CPU      2.92s WALL (       9 calls)
     sum_band     :      0.52s CPU      0.54s WALL (       9 calls)
     v_of_rho     :      0.89s CPU      0.98s WALL (       9 calls)
     v_h          :      0.01s CPU      0.01s WALL (       9 calls)
     v_xc         :      3.16s CPU      3.58s WALL (      45 calls)
     newd         :      0.04s CPU      0.06s WALL (       9 calls)
     PAW_pot      :      0.36s CPU      0.52s WALL (       9 calls)
     mix_rho      :      0.02s CPU      0.02s WALL (       9 calls)
     vdW_kernel   :      0.26s CPU      0.27s WALL (       1 calls)

     Called by c_bands:
     init_us_2    :      0.04s CPU      0.05s WALL (     294 calls)
     init_us_2:cp :      0.04s CPU      0.04s WALL (     294 calls)
     cegterg      :      2.30s CPU      2.35s WALL (     126 calls)

     Called by sum_band:
     sum_band:wei :      0.00s CPU      0.00s WALL (       9 calls)
     sum_band:loo :      0.35s CPU      0.37s WALL (       9 calls)
     sum_band:buf :      0.00s CPU      0.00s WALL (     126 calls)
     sum_band:ini :      0.02s CPU      0.02s WALL (     126 calls)
     sum_band:cal :      0.02s CPU      0.02s WALL (     126 calls)
     sum_band:bec :      0.00s CPU      0.00s WALL (     126 calls)
     addusdens    :      0.07s CPU      0.07s WALL (       9 calls)
     addusd:skk   :      0.00s CPU      0.00s WALL (       9 calls)
     addusd:dgemm :      0.03s CPU      0.04s WALL (       9 calls)
     addusd:qvan2 :      0.02s CPU      0.02s WALL (       9 calls)

     Called by *egterg:
     cdiaghg      :      0.09s CPU      0.09s WALL (     744 calls)
     cegterg:over :      0.08s CPU      0.08s WALL (     632 calls)
     cegterg:upda :      0.03s CPU      0.03s WALL (     632 calls)
     cegterg:last :      0.05s CPU      0.05s WALL (     335 calls)
     h_psi        :      1.99s CPU      2.03s WALL (     772 calls)
     s_psi        :      0.06s CPU      0.06s WALL (     772 calls)
     g_psi        :      0.00s CPU      0.00s WALL (     632 calls)

     Called by h_psi:
     h_psi:calbec :      0.10s CPU      0.10s WALL (     772 calls)
     vloc_psi     :      1.81s CPU      1.85s WALL (     772 calls)
     add_vuspsi   :      0.07s CPU      0.07s WALL (     772 calls)

     General routines
     calbec       :      0.13s CPU      0.14s WALL (     968 calls)
     fft          :      1.43s CPU      1.46s WALL (    2657 calls)
     ffts         :      0.01s CPU      0.01s WALL (       9 calls)
     fftw         :      1.96s CPU      2.00s WALL (    9586 calls)
 
     Parallel routines

     PAW routines
     PAW_pot      :      0.36s CPU      0.52s WALL (       9 calls)
     PAW_symme    :      0.01s CPU      0.01s WALL (      18 calls)
 
     PWSCF        :      7.94s CPU      9.28s WALL

 
   This run was terminated on:  18: 4:46  20Jul2023            

=------------------------------------------------------------------------------=
   JOB DONE.
=------------------------------------------------------------------------------=
