
     Program PWSCF v.7.1 starts on 20Jul2023 at 16:38:11 

     This program is part of the open-source Quantum ESPRESSO suite
     for quantum simulation of materials; please cite
         "P. Giannozzi et al., J. Phys.:Condens. Matter 21 395502 (2009);
         "P. Giannozzi et al., J. Phys.:Condens. Matter 29 465901 (2017);
         "P. Giannozzi et al., J. Chem. Phys. 152 154105 (2020);
          URL http://www.quantum-espresso.org", 
     in publications or presentations arising from this work. More details at
     http://www.quantum-espresso.org/quote

     Parallel version (MPI & OpenMP), running on     128 processor cores
     Number of MPI processes:               128
     Threads/MPI process:                     1

     MPI processes distributed on     1 nodes
     1952197 MiB available memory on the printing compute node when the environment starts
 
     Reading input from espresso.pwi
Warning: card &CELL ignored
Warning: card / ignored

     Current dimensions of program PWSCF are:
     Max number of different atomic species (ntypx) = 10
     Max number of k-points (npk) =  40000
     Max angular momentum in pseudopotentials (lmaxx) =  4
     file Ba.pbe-spn-kjpaw_psl.1.0.0.UPF: wavefunction(s)  5S 6S renormalized
     file O.pbe-n-kjpaw_psl.0.1.UPF: wavefunction(s)  2P renormalized

     **************************************************************************
     Initializing libbeef V0.1.2 with the BEEF-vdW functional.
     Citation: Wellendorff et al., PRB 85, 235149 (2012).
     **************************************************************************


     IMPORTANT: XC functional enforced from input :
     Exchange-correlation= BEEF-VDW
                           (   1   4  43  14   2   0   0)
     Any further DFT definition will be discarded
     Please, verify this is what you really want

     Found identity + (  0.0000  0.5000  0.5000) symmetry
     This is a supercell, fractional translations are disabled
 
     K-points division:     npool     =       4
     R & G space division:  proc/nbgrp/npool/nimage =      32
     Subspace diagonalization in iterative solution of the eigenvalue problem:
     a serial algorithm will be used

 
     Parallelization info
     --------------------
     sticks:   dense  smooth     PW     G-vecs:    dense   smooth      PW
     Min         134     134     37                 6652     6652     953
     Max         136     136     38                 6655     6655     956
     Sum        4309    4309   1185               212911   212911   30551
 
     Using Slab Decomposition
 


     bravais-lattice index     =            1
     lattice parameter (alat)  =      10.6243  a.u.
     unit-cell volume          =    1199.2158 (a.u.)^3
     number of atoms/cell      =            8
     number of atomic types    =            2
     number of electrons       =        64.00
     number of Kohn-Sham states=           32
     kinetic-energy cutoff     =     120.0000  Ry
     charge density cutoff     =     480.0000  Ry
     scf convergence threshold =      1.0E-08
     mixing beta               =       0.7000
     number of iterations used =            8  plain     mixing
     Exchange-correlation= BEEF-VDW
                           (   1   4  43  14   2   0   0)

     celldm(1)=  10.624270  celldm(2)=   0.000000  celldm(3)=   0.000000
     celldm(4)=   0.000000  celldm(5)=   0.000000  celldm(6)=   0.000000

     crystal axes: (cart. coord. in units of alat)
               a(1) = (   1.000000   0.000000   0.000000 )  
               a(2) = (   0.000000   1.000000   0.000000 )  
               a(3) = (   0.000000   0.000000   1.000000 )  

     reciprocal axes: (cart. coord. in units 2 pi/alat)
               b(1) = (  1.000000  0.000000  0.000000 )  
               b(2) = (  0.000000  1.000000  0.000000 )  
               b(3) = (  0.000000  0.000000  1.000000 )  


     PseudoPot. # 1 for Ba read from file:
     /trace/home/atimmins/packages/espresso/pseudo/Ba.pbe-spn-kjpaw_psl.1.0.0.UPF
     MD5 check sum: c432291d3e53af55f19d5e8866385beb
     Pseudo is Projector augmented-wave + core cor, Zval = 10.0
     Generated using "atomic" code by A. Dal Corso  v.5.1
     Shape of augmentation charge: PSQ
     Using radial grid of 1251 points,  7 beta functions with: 
                l(1) =   0
                l(2) =   0
                l(3) =   0
                l(4) =   1
                l(5) =   1
                l(6) =   2
                l(7) =   2
     Q(r) pseudized with 0 coefficients 


     PseudoPot. # 2 for O  read from file:
     /trace/home/atimmins/packages/espresso/pseudo/O.pbe-n-kjpaw_psl.0.1.UPF
     MD5 check sum: 0234752ac141de4415c5fc33072bef88
     Pseudo is Projector augmented-wave + core cor, Zval =  6.0
     Generated using "atomic" code by A. Dal Corso  v.5.0.99 svn rev. 10869
     Shape of augmentation charge: BESSEL
     Using radial grid of 1095 points,  4 beta functions with: 
                l(1) =   0
                l(2) =   0
                l(3) =   1
                l(4) =   1
     Q(r) pseudized with 0 coefficients 


     atomic species   valence    mass     pseudopotential
        Ba            10.00   137.32700     Ba( 1.00)
        O              6.00    15.99900     O ( 1.00)

     48 Sym. Ops., with inversion, found


                                    s                        frac. trans.

      isym =  1     identity                                     

 cryst.   s( 1) = (     1          0          0      )
                  (     0          1          0      )
                  (     0          0          1      )

 cart.    s( 1) = (  1.0000000  0.0000000  0.0000000 )
                  (  0.0000000  1.0000000  0.0000000 )
                  (  0.0000000  0.0000000  1.0000000 )


      isym =  2     180 deg rotation - cart. axis [0,0,1]        

 cryst.   s( 2) = (    -1          0          0      )
                  (     0         -1          0      )
                  (     0          0          1      )

 cart.    s( 2) = ( -1.0000000  0.0000000  0.0000000 )
                  (  0.0000000 -1.0000000  0.0000000 )
                  (  0.0000000  0.0000000  1.0000000 )


      isym =  3     180 deg rotation - cart. axis [0,1,0]        

 cryst.   s( 3) = (    -1          0          0      )
                  (     0          1          0      )
                  (     0          0         -1      )

 cart.    s( 3) = ( -1.0000000  0.0000000  0.0000000 )
                  (  0.0000000  1.0000000  0.0000000 )
                  (  0.0000000  0.0000000 -1.0000000 )


      isym =  4     180 deg rotation - cart. axis [1,0,0]        

 cryst.   s( 4) = (     1          0          0      )
                  (     0         -1          0      )
                  (     0          0         -1      )

 cart.    s( 4) = (  1.0000000  0.0000000  0.0000000 )
                  (  0.0000000 -1.0000000  0.0000000 )
                  (  0.0000000  0.0000000 -1.0000000 )


      isym =  5     180 deg rotation - cart. axis [1,1,0]        

 cryst.   s( 5) = (     0          1          0      )
                  (     1          0          0      )
                  (     0          0         -1      )

 cart.    s( 5) = (  0.0000000  1.0000000  0.0000000 )
                  (  1.0000000  0.0000000  0.0000000 )
                  (  0.0000000  0.0000000 -1.0000000 )


      isym =  6     180 deg rotation - cart. axis [1,-1,0]       

 cryst.   s( 6) = (     0         -1          0      )
                  (    -1          0          0      )
                  (     0          0         -1      )

 cart.    s( 6) = (  0.0000000 -1.0000000  0.0000000 )
                  ( -1.0000000  0.0000000  0.0000000 )
                  (  0.0000000  0.0000000 -1.0000000 )


      isym =  7      90 deg rotation - cart. axis [0,0,-1]       

 cryst.   s( 7) = (     0         -1          0      )
                  (     1          0          0      )
                  (     0          0          1      )

 cart.    s( 7) = (  0.0000000  1.0000000  0.0000000 )
                  ( -1.0000000  0.0000000  0.0000000 )
                  (  0.0000000  0.0000000  1.0000000 )


      isym =  8      90 deg rotation - cart. axis [0,0,1]        

 cryst.   s( 8) = (     0          1          0      )
                  (    -1          0          0      )
                  (     0          0          1      )

 cart.    s( 8) = (  0.0000000 -1.0000000  0.0000000 )
                  (  1.0000000  0.0000000  0.0000000 )
                  (  0.0000000  0.0000000  1.0000000 )


      isym =  9     180 deg rotation - cart. axis [1,0,1]        

 cryst.   s( 9) = (     0          0          1      )
                  (     0         -1          0      )
                  (     1          0          0      )

 cart.    s( 9) = (  0.0000000  0.0000000  1.0000000 )
                  (  0.0000000 -1.0000000  0.0000000 )
                  (  1.0000000  0.0000000  0.0000000 )


      isym = 10     180 deg rotation - cart. axis [-1,0,1]       

 cryst.   s(10) = (     0          0         -1      )
                  (     0         -1          0      )
                  (    -1          0          0      )

 cart.    s(10) = (  0.0000000  0.0000000 -1.0000000 )
                  (  0.0000000 -1.0000000  0.0000000 )
                  ( -1.0000000  0.0000000  0.0000000 )


      isym = 11      90 deg rotation - cart. axis [0,1,0]        

 cryst.   s(11) = (     0          0         -1      )
                  (     0          1          0      )
                  (     1          0          0      )

 cart.    s(11) = (  0.0000000  0.0000000  1.0000000 )
                  (  0.0000000  1.0000000  0.0000000 )
                  ( -1.0000000  0.0000000  0.0000000 )


      isym = 12      90 deg rotation - cart. axis [0,-1,0]       

 cryst.   s(12) = (     0          0          1      )
                  (     0          1          0      )
                  (    -1          0          0      )

 cart.    s(12) = (  0.0000000  0.0000000 -1.0000000 )
                  (  0.0000000  1.0000000  0.0000000 )
                  (  1.0000000  0.0000000  0.0000000 )


      isym = 13     180 deg rotation - cart. axis [0,1,1]        

 cryst.   s(13) = (    -1          0          0      )
                  (     0          0          1      )
                  (     0          1          0      )

 cart.    s(13) = ( -1.0000000  0.0000000  0.0000000 )
                  (  0.0000000  0.0000000  1.0000000 )
                  (  0.0000000  1.0000000  0.0000000 )


      isym = 14     180 deg rotation - cart. axis [0,1,-1]       

 cryst.   s(14) = (    -1          0          0      )
                  (     0          0         -1      )
                  (     0         -1          0      )

 cart.    s(14) = ( -1.0000000  0.0000000  0.0000000 )
                  (  0.0000000  0.0000000 -1.0000000 )
                  (  0.0000000 -1.0000000  0.0000000 )


      isym = 15      90 deg rotation - cart. axis [-1,0,0]       

 cryst.   s(15) = (     1          0          0      )
                  (     0          0         -1      )
                  (     0          1          0      )

 cart.    s(15) = (  1.0000000  0.0000000  0.0000000 )
                  (  0.0000000  0.0000000  1.0000000 )
                  (  0.0000000 -1.0000000  0.0000000 )


      isym = 16      90 deg rotation - cart. axis [1,0,0]        

 cryst.   s(16) = (     1          0          0      )
                  (     0          0          1      )
                  (     0         -1          0      )

 cart.    s(16) = (  1.0000000  0.0000000  0.0000000 )
                  (  0.0000000  0.0000000 -1.0000000 )
                  (  0.0000000  1.0000000  0.0000000 )


      isym = 17     120 deg rotation - cart. axis [-1,-1,-1]     

 cryst.   s(17) = (     0          0          1      )
                  (     1          0          0      )
                  (     0          1          0      )

 cart.    s(17) = (  0.0000000  1.0000000  0.0000000 )
                  (  0.0000000  0.0000000  1.0000000 )
                  (  1.0000000  0.0000000  0.0000000 )


      isym = 18     120 deg rotation - cart. axis [-1,1,1]       

 cryst.   s(18) = (     0          0         -1      )
                  (    -1          0          0      )
                  (     0          1          0      )

 cart.    s(18) = (  0.0000000 -1.0000000  0.0000000 )
                  (  0.0000000  0.0000000  1.0000000 )
                  ( -1.0000000  0.0000000  0.0000000 )


      isym = 19     120 deg rotation - cart. axis [1,1,-1]       

 cryst.   s(19) = (     0          0         -1      )
                  (     1          0          0      )
                  (     0         -1          0      )

 cart.    s(19) = (  0.0000000  1.0000000  0.0000000 )
                  (  0.0000000  0.0000000 -1.0000000 )
                  ( -1.0000000  0.0000000  0.0000000 )


      isym = 20     120 deg rotation - cart. axis [1,-1,1]       

 cryst.   s(20) = (     0          0          1      )
                  (    -1          0          0      )
                  (     0         -1          0      )

 cart.    s(20) = (  0.0000000 -1.0000000  0.0000000 )
                  (  0.0000000  0.0000000 -1.0000000 )
                  (  1.0000000  0.0000000  0.0000000 )


      isym = 21     120 deg rotation - cart. axis [1,1,1]        

 cryst.   s(21) = (     0          1          0      )
                  (     0          0          1      )
                  (     1          0          0      )

 cart.    s(21) = (  0.0000000  0.0000000  1.0000000 )
                  (  1.0000000  0.0000000  0.0000000 )
                  (  0.0000000  1.0000000  0.0000000 )


      isym = 22     120 deg rotation - cart. axis [-1,1,-1]      

 cryst.   s(22) = (     0         -1          0      )
                  (     0          0         -1      )
                  (     1          0          0      )

 cart.    s(22) = (  0.0000000  0.0000000  1.0000000 )
                  ( -1.0000000  0.0000000  0.0000000 )
                  (  0.0000000 -1.0000000  0.0000000 )


      isym = 23     120 deg rotation - cart. axis [1,-1,-1]      

 cryst.   s(23) = (     0         -1          0      )
                  (     0          0          1      )
                  (    -1          0          0      )

 cart.    s(23) = (  0.0000000  0.0000000 -1.0000000 )
                  ( -1.0000000  0.0000000  0.0000000 )
                  (  0.0000000  1.0000000  0.0000000 )


      isym = 24     120 deg rotation - cart. axis [-1,-1,1]      

 cryst.   s(24) = (     0          1          0      )
                  (     0          0         -1      )
                  (    -1          0          0      )

 cart.    s(24) = (  0.0000000  0.0000000 -1.0000000 )
                  (  1.0000000  0.0000000  0.0000000 )
                  (  0.0000000 -1.0000000  0.0000000 )


      isym = 25     inversion                                    

 cryst.   s(25) = (    -1          0          0      )
                  (     0         -1          0      )
                  (     0          0         -1      )

 cart.    s(25) = ( -1.0000000  0.0000000  0.0000000 )
                  (  0.0000000 -1.0000000  0.0000000 )
                  (  0.0000000  0.0000000 -1.0000000 )


      isym = 26     inv. 180 deg rotation - cart. axis [0,0,1]   

 cryst.   s(26) = (     1          0          0      )
                  (     0          1          0      )
                  (     0          0         -1      )

 cart.    s(26) = (  1.0000000  0.0000000  0.0000000 )
                  (  0.0000000  1.0000000  0.0000000 )
                  (  0.0000000  0.0000000 -1.0000000 )


      isym = 27     inv. 180 deg rotation - cart. axis [0,1,0]   

 cryst.   s(27) = (     1          0          0      )
                  (     0         -1          0      )
                  (     0          0          1      )

 cart.    s(27) = (  1.0000000  0.0000000  0.0000000 )
                  (  0.0000000 -1.0000000  0.0000000 )
                  (  0.0000000  0.0000000  1.0000000 )


      isym = 28     inv. 180 deg rotation - cart. axis [1,0,0]   

 cryst.   s(28) = (    -1          0          0      )
                  (     0          1          0      )
                  (     0          0          1      )

 cart.    s(28) = ( -1.0000000  0.0000000  0.0000000 )
                  (  0.0000000  1.0000000  0.0000000 )
                  (  0.0000000  0.0000000  1.0000000 )


      isym = 29     inv. 180 deg rotation - cart. axis [1,1,0]   

 cryst.   s(29) = (     0         -1          0      )
                  (    -1          0          0      )
                  (     0          0          1      )

 cart.    s(29) = (  0.0000000 -1.0000000  0.0000000 )
                  ( -1.0000000  0.0000000  0.0000000 )
                  (  0.0000000  0.0000000  1.0000000 )


      isym = 30     inv. 180 deg rotation - cart. axis [1,-1,0]  

 cryst.   s(30) = (     0          1          0      )
                  (     1          0          0      )
                  (     0          0          1      )

 cart.    s(30) = (  0.0000000  1.0000000  0.0000000 )
                  (  1.0000000  0.0000000  0.0000000 )
                  (  0.0000000  0.0000000  1.0000000 )


      isym = 31     inv.  90 deg rotation - cart. axis [0,0,-1]  

 cryst.   s(31) = (     0          1          0      )
                  (    -1          0          0      )
                  (     0          0         -1      )

 cart.    s(31) = (  0.0000000 -1.0000000  0.0000000 )
                  (  1.0000000  0.0000000  0.0000000 )
                  (  0.0000000  0.0000000 -1.0000000 )


      isym = 32     inv.  90 deg rotation - cart. axis [0,0,1]   

 cryst.   s(32) = (     0         -1          0      )
                  (     1          0          0      )
                  (     0          0         -1      )

 cart.    s(32) = (  0.0000000  1.0000000  0.0000000 )
                  ( -1.0000000  0.0000000  0.0000000 )
                  (  0.0000000  0.0000000 -1.0000000 )


      isym = 33     inv. 180 deg rotation - cart. axis [1,0,1]   

 cryst.   s(33) = (     0          0         -1      )
                  (     0          1          0      )
                  (    -1          0          0      )

 cart.    s(33) = (  0.0000000  0.0000000 -1.0000000 )
                  (  0.0000000  1.0000000  0.0000000 )
                  ( -1.0000000  0.0000000  0.0000000 )


      isym = 34     inv. 180 deg rotation - cart. axis [-1,0,1]  

 cryst.   s(34) = (     0          0          1      )
                  (     0          1          0      )
                  (     1          0          0      )

 cart.    s(34) = (  0.0000000  0.0000000  1.0000000 )
                  (  0.0000000  1.0000000  0.0000000 )
                  (  1.0000000  0.0000000  0.0000000 )


      isym = 35     inv.  90 deg rotation - cart. axis [0,1,0]   

 cryst.   s(35) = (     0          0          1      )
                  (     0         -1          0      )
                  (    -1          0          0      )

 cart.    s(35) = (  0.0000000  0.0000000 -1.0000000 )
                  (  0.0000000 -1.0000000  0.0000000 )
                  (  1.0000000  0.0000000  0.0000000 )


      isym = 36     inv.  90 deg rotation - cart. axis [0,-1,0]  

 cryst.   s(36) = (     0          0         -1      )
                  (     0         -1          0      )
                  (     1          0          0      )

 cart.    s(36) = (  0.0000000  0.0000000  1.0000000 )
                  (  0.0000000 -1.0000000  0.0000000 )
                  ( -1.0000000  0.0000000  0.0000000 )


      isym = 37     inv. 180 deg rotation - cart. axis [0,1,1]   

 cryst.   s(37) = (     1          0          0      )
                  (     0          0         -1      )
                  (     0         -1          0      )

 cart.    s(37) = (  1.0000000  0.0000000  0.0000000 )
                  (  0.0000000  0.0000000 -1.0000000 )
                  (  0.0000000 -1.0000000  0.0000000 )


      isym = 38     inv. 180 deg rotation - cart. axis [0,1,-1]  

 cryst.   s(38) = (     1          0          0      )
                  (     0          0          1      )
                  (     0          1          0      )

 cart.    s(38) = (  1.0000000  0.0000000  0.0000000 )
                  (  0.0000000  0.0000000  1.0000000 )
                  (  0.0000000  1.0000000  0.0000000 )


      isym = 39     inv.  90 deg rotation - cart. axis [-1,0,0]  

 cryst.   s(39) = (    -1          0          0      )
                  (     0          0          1      )
                  (     0         -1          0      )

 cart.    s(39) = ( -1.0000000  0.0000000  0.0000000 )
                  (  0.0000000  0.0000000 -1.0000000 )
                  (  0.0000000  1.0000000  0.0000000 )


      isym = 40     inv.  90 deg rotation - cart. axis [1,0,0]   

 cryst.   s(40) = (    -1          0          0      )
                  (     0          0         -1      )
                  (     0          1          0      )

 cart.    s(40) = ( -1.0000000  0.0000000  0.0000000 )
                  (  0.0000000  0.0000000  1.0000000 )
                  (  0.0000000 -1.0000000  0.0000000 )


      isym = 41     inv. 120 deg rotation - cart. axis [-1,-1,-1]

 cryst.   s(41) = (     0          0         -1      )
                  (    -1          0          0      )
                  (     0         -1          0      )

 cart.    s(41) = (  0.0000000 -1.0000000  0.0000000 )
                  (  0.0000000  0.0000000 -1.0000000 )
                  ( -1.0000000  0.0000000  0.0000000 )


      isym = 42     inv. 120 deg rotation - cart. axis [-1,1,1]  

 cryst.   s(42) = (     0          0          1      )
                  (     1          0          0      )
                  (     0         -1          0      )

 cart.    s(42) = (  0.0000000  1.0000000  0.0000000 )
                  (  0.0000000  0.0000000 -1.0000000 )
                  (  1.0000000  0.0000000  0.0000000 )


      isym = 43     inv. 120 deg rotation - cart. axis [1,1,-1]  

 cryst.   s(43) = (     0          0          1      )
                  (    -1          0          0      )
                  (     0          1          0      )

 cart.    s(43) = (  0.0000000 -1.0000000  0.0000000 )
                  (  0.0000000  0.0000000  1.0000000 )
                  (  1.0000000  0.0000000  0.0000000 )


      isym = 44     inv. 120 deg rotation - cart. axis [1,-1,1]  

 cryst.   s(44) = (     0          0         -1      )
                  (     1          0          0      )
                  (     0          1          0      )

 cart.    s(44) = (  0.0000000  1.0000000  0.0000000 )
                  (  0.0000000  0.0000000  1.0000000 )
                  ( -1.0000000  0.0000000  0.0000000 )


      isym = 45     inv. 120 deg rotation - cart. axis [1,1,1]   

 cryst.   s(45) = (     0         -1          0      )
                  (     0          0         -1      )
                  (    -1          0          0      )

 cart.    s(45) = (  0.0000000  0.0000000 -1.0000000 )
                  ( -1.0000000  0.0000000  0.0000000 )
                  (  0.0000000 -1.0000000  0.0000000 )


      isym = 46     inv. 120 deg rotation - cart. axis [-1,1,-1] 

 cryst.   s(46) = (     0          1          0      )
                  (     0          0          1      )
                  (    -1          0          0      )

 cart.    s(46) = (  0.0000000  0.0000000 -1.0000000 )
                  (  1.0000000  0.0000000  0.0000000 )
                  (  0.0000000  1.0000000  0.0000000 )


      isym = 47     inv. 120 deg rotation - cart. axis [1,-1,-1] 

 cryst.   s(47) = (     0          1          0      )
                  (     0          0         -1      )
                  (     1          0          0      )

 cart.    s(47) = (  0.0000000  0.0000000  1.0000000 )
                  (  1.0000000  0.0000000  0.0000000 )
                  (  0.0000000 -1.0000000  0.0000000 )


      isym = 48     inv. 120 deg rotation - cart. axis [-1,-1,1] 

 cryst.   s(48) = (     0         -1          0      )
                  (     0          0          1      )
                  (     1          0          0      )

 cart.    s(48) = (  0.0000000  0.0000000  1.0000000 )
                  ( -1.0000000  0.0000000  0.0000000 )
                  (  0.0000000  1.0000000  0.0000000 )


     point group O_h (m-3m) 
     there are 10 classes
     the character table:

       E     8C3   3C2   6C4   6C2'  i     8S6   3s_h  6S4   6s_d 
A_1g   1.00  1.00  1.00  1.00  1.00  1.00  1.00  1.00  1.00  1.00
A_2g   1.00  1.00  1.00 -1.00 -1.00  1.00  1.00  1.00 -1.00 -1.00
E_g    2.00 -1.00  2.00  0.00  0.00  2.00 -1.00  2.00  0.00  0.00
T_1g   3.00  0.00 -1.00  1.00 -1.00  3.00  0.00 -1.00  1.00 -1.00
T_2g   3.00  0.00 -1.00 -1.00  1.00  3.00  0.00 -1.00 -1.00  1.00
A_1u   1.00  1.00  1.00  1.00  1.00 -1.00 -1.00 -1.00 -1.00 -1.00
A_2u   1.00  1.00  1.00 -1.00 -1.00 -1.00 -1.00 -1.00  1.00  1.00
E_u    2.00 -1.00  2.00  0.00  0.00 -2.00  1.00 -2.00  0.00  0.00
T_1u   3.00  0.00 -1.00  1.00 -1.00 -3.00  0.00  1.00 -1.00  1.00
T_2u   3.00  0.00 -1.00 -1.00  1.00 -3.00  0.00  1.00  1.00 -1.00

     the symmetry operations in each class and the name of the first element:

     E        1
          identity                                               
     8C3     17   19   20   18   24   21   22   23
          120 deg rotation - cart. axis [-1,-1,-1]               
     3C2      2    4    3
          180 deg rotation - cart. axis [0,0,1]                  
     6C4      7    8   15   16   12   11
           90 deg rotation - cart. axis [0,0,-1]                 
     6C2'     5    6   14   13   10    9
          180 deg rotation - cart. axis [1,1,0]                  
     i       25
          inversion                                              
     8S6     41   43   44   42   48   45   46   47
          inv. 120 deg rotation - cart. axis [-1,-1,-1]          
     3s_h    26   28   27
          inv. 180 deg rotation - cart. axis [0,0,1]             
     6S4     31   32   39   40   36   35
          inv.  90 deg rotation - cart. axis [0,0,-1]            
     6s_d    29   30   38   37   34   33
          inv. 180 deg rotation - cart. axis [1,1,0]             

   Cartesian axes

     site n.     atom                  positions (alat units)
         1           Ba  tau(   1) = (   0.0000000   0.0000000   0.0000000  )
         2           Ba  tau(   2) = (   0.0000000   0.5000000   0.5000000  )
         3           Ba  tau(   3) = (   0.5000000   0.0000000   0.5000000  )
         4           Ba  tau(   4) = (   0.5000000   0.5000000   0.0000000  )
         5           O   tau(   5) = (   0.5000000   0.0000000   0.0000000  )
         6           O   tau(   6) = (   0.5000000   0.5000000   0.5000000  )
         7           O   tau(   7) = (   0.0000000   0.0000000   0.5000000  )
         8           O   tau(   8) = (   0.0000000   0.5000000   0.0000000  )

   Crystallographic axes

     site n.     atom                  positions (cryst. coord.)
         1           Ba  tau(   1) = (  0.0000000  0.0000000  0.0000000  )
         2           Ba  tau(   2) = (  0.0000000  0.5000000  0.5000000  )
         3           Ba  tau(   3) = (  0.5000000  0.0000000  0.5000000  )
         4           Ba  tau(   4) = (  0.5000000  0.5000000  0.0000000  )
         5           O   tau(   5) = (  0.5000000  0.0000000  0.0000000  )
         6           O   tau(   6) = (  0.5000000  0.5000000  0.5000000  )
         7           O   tau(   7) = (  0.0000000  0.0000000  0.5000000  )
         8           O   tau(   8) = (  0.0000000  0.5000000  0.0000000  )

     number of k points=    56
                       cart. coord. in units 2pi/alat
        k(    1) = (   0.0000000   0.0000000   0.0000000), wk =   0.0020000
        k(    2) = (   0.0000000   0.0000000   0.1000000), wk =   0.0120000
        k(    3) = (   0.0000000   0.0000000   0.2000000), wk =   0.0120000
        k(    4) = (   0.0000000   0.0000000   0.3000000), wk =   0.0120000
        k(    5) = (   0.0000000   0.0000000   0.4000000), wk =   0.0120000
        k(    6) = (   0.0000000   0.0000000  -0.5000000), wk =   0.0060000
        k(    7) = (   0.0000000   0.1000000   0.1000000), wk =   0.0240000
        k(    8) = (   0.0000000   0.1000000   0.2000000), wk =   0.0480000
        k(    9) = (   0.0000000   0.1000000   0.3000000), wk =   0.0480000
        k(   10) = (   0.0000000   0.1000000   0.4000000), wk =   0.0480000
        k(   11) = (   0.0000000   0.1000000  -0.5000000), wk =   0.0240000
        k(   12) = (   0.0000000   0.2000000   0.2000000), wk =   0.0240000
        k(   13) = (   0.0000000   0.2000000   0.3000000), wk =   0.0480000
        k(   14) = (   0.0000000   0.2000000   0.4000000), wk =   0.0480000
        k(   15) = (   0.0000000   0.2000000  -0.5000000), wk =   0.0240000
        k(   16) = (   0.0000000   0.3000000   0.3000000), wk =   0.0240000
        k(   17) = (   0.0000000   0.3000000   0.4000000), wk =   0.0480000
        k(   18) = (   0.0000000   0.3000000  -0.5000000), wk =   0.0240000
        k(   19) = (   0.0000000   0.4000000   0.4000000), wk =   0.0240000
        k(   20) = (   0.0000000   0.4000000  -0.5000000), wk =   0.0240000
        k(   21) = (   0.0000000  -0.5000000  -0.5000000), wk =   0.0060000
        k(   22) = (   0.1000000   0.1000000   0.1000000), wk =   0.0160000
        k(   23) = (   0.1000000   0.1000000   0.2000000), wk =   0.0480000
        k(   24) = (   0.1000000   0.1000000   0.3000000), wk =   0.0480000
        k(   25) = (   0.1000000   0.1000000   0.4000000), wk =   0.0480000
        k(   26) = (   0.1000000   0.1000000  -0.5000000), wk =   0.0240000
        k(   27) = (   0.1000000   0.2000000   0.2000000), wk =   0.0480000
        k(   28) = (   0.1000000   0.2000000   0.3000000), wk =   0.0960000
        k(   29) = (   0.1000000   0.2000000   0.4000000), wk =   0.0960000
        k(   30) = (   0.1000000   0.2000000  -0.5000000), wk =   0.0480000
        k(   31) = (   0.1000000   0.3000000   0.3000000), wk =   0.0480000
        k(   32) = (   0.1000000   0.3000000   0.4000000), wk =   0.0960000
        k(   33) = (   0.1000000   0.3000000  -0.5000000), wk =   0.0480000
        k(   34) = (   0.1000000   0.4000000   0.4000000), wk =   0.0480000
        k(   35) = (   0.1000000   0.4000000  -0.5000000), wk =   0.0480000
        k(   36) = (   0.1000000  -0.5000000  -0.5000000), wk =   0.0120000
        k(   37) = (   0.2000000   0.2000000   0.2000000), wk =   0.0160000
        k(   38) = (   0.2000000   0.2000000   0.3000000), wk =   0.0480000
        k(   39) = (   0.2000000   0.2000000   0.4000000), wk =   0.0480000
        k(   40) = (   0.2000000   0.2000000  -0.5000000), wk =   0.0240000
        k(   41) = (   0.2000000   0.3000000   0.3000000), wk =   0.0480000
        k(   42) = (   0.2000000   0.3000000   0.4000000), wk =   0.0960000
        k(   43) = (   0.2000000   0.3000000  -0.5000000), wk =   0.0480000
        k(   44) = (   0.2000000   0.4000000   0.4000000), wk =   0.0480000
        k(   45) = (   0.2000000   0.4000000  -0.5000000), wk =   0.0480000
        k(   46) = (   0.2000000  -0.5000000  -0.5000000), wk =   0.0120000
        k(   47) = (   0.3000000   0.3000000   0.3000000), wk =   0.0160000
        k(   48) = (   0.3000000   0.3000000   0.4000000), wk =   0.0480000
        k(   49) = (   0.3000000   0.3000000  -0.5000000), wk =   0.0240000
        k(   50) = (   0.3000000   0.4000000   0.4000000), wk =   0.0480000
        k(   51) = (   0.3000000   0.4000000  -0.5000000), wk =   0.0480000
        k(   52) = (   0.3000000  -0.5000000  -0.5000000), wk =   0.0120000
        k(   53) = (   0.4000000   0.4000000   0.4000000), wk =   0.0160000
        k(   54) = (   0.4000000   0.4000000  -0.5000000), wk =   0.0240000
        k(   55) = (   0.4000000  -0.5000000  -0.5000000), wk =   0.0120000
        k(   56) = (  -0.5000000  -0.5000000  -0.5000000), wk =   0.0020000

                       cryst. coord.
        k(    1) = (   0.0000000   0.0000000   0.0000000), wk =   0.0020000
        k(    2) = (   0.0000000   0.0000000   0.1000000), wk =   0.0120000
        k(    3) = (   0.0000000   0.0000000   0.2000000), wk =   0.0120000
        k(    4) = (   0.0000000   0.0000000   0.3000000), wk =   0.0120000
        k(    5) = (   0.0000000   0.0000000   0.4000000), wk =   0.0120000
        k(    6) = (   0.0000000   0.0000000  -0.5000000), wk =   0.0060000
        k(    7) = (   0.0000000   0.1000000   0.1000000), wk =   0.0240000
        k(    8) = (   0.0000000   0.1000000   0.2000000), wk =   0.0480000
        k(    9) = (   0.0000000   0.1000000   0.3000000), wk =   0.0480000
        k(   10) = (   0.0000000   0.1000000   0.4000000), wk =   0.0480000
        k(   11) = (   0.0000000   0.1000000  -0.5000000), wk =   0.0240000
        k(   12) = (   0.0000000   0.2000000   0.2000000), wk =   0.0240000
        k(   13) = (   0.0000000   0.2000000   0.3000000), wk =   0.0480000
        k(   14) = (   0.0000000   0.2000000   0.4000000), wk =   0.0480000
        k(   15) = (   0.0000000   0.2000000  -0.5000000), wk =   0.0240000
        k(   16) = (   0.0000000   0.3000000   0.3000000), wk =   0.0240000
        k(   17) = (   0.0000000   0.3000000   0.4000000), wk =   0.0480000
        k(   18) = (   0.0000000   0.3000000  -0.5000000), wk =   0.0240000
        k(   19) = (   0.0000000   0.4000000   0.4000000), wk =   0.0240000
        k(   20) = (   0.0000000   0.4000000  -0.5000000), wk =   0.0240000
        k(   21) = (   0.0000000  -0.5000000  -0.5000000), wk =   0.0060000
        k(   22) = (   0.1000000   0.1000000   0.1000000), wk =   0.0160000
        k(   23) = (   0.1000000   0.1000000   0.2000000), wk =   0.0480000
        k(   24) = (   0.1000000   0.1000000   0.3000000), wk =   0.0480000
        k(   25) = (   0.1000000   0.1000000   0.4000000), wk =   0.0480000
        k(   26) = (   0.1000000   0.1000000  -0.5000000), wk =   0.0240000
        k(   27) = (   0.1000000   0.2000000   0.2000000), wk =   0.0480000
        k(   28) = (   0.1000000   0.2000000   0.3000000), wk =   0.0960000
        k(   29) = (   0.1000000   0.2000000   0.4000000), wk =   0.0960000
        k(   30) = (   0.1000000   0.2000000  -0.5000000), wk =   0.0480000
        k(   31) = (   0.1000000   0.3000000   0.3000000), wk =   0.0480000
        k(   32) = (   0.1000000   0.3000000   0.4000000), wk =   0.0960000
        k(   33) = (   0.1000000   0.3000000  -0.5000000), wk =   0.0480000
        k(   34) = (   0.1000000   0.4000000   0.4000000), wk =   0.0480000
        k(   35) = (   0.1000000   0.4000000  -0.5000000), wk =   0.0480000
        k(   36) = (   0.1000000  -0.5000000  -0.5000000), wk =   0.0120000
        k(   37) = (   0.2000000   0.2000000   0.2000000), wk =   0.0160000
        k(   38) = (   0.2000000   0.2000000   0.3000000), wk =   0.0480000
        k(   39) = (   0.2000000   0.2000000   0.4000000), wk =   0.0480000
        k(   40) = (   0.2000000   0.2000000  -0.5000000), wk =   0.0240000
        k(   41) = (   0.2000000   0.3000000   0.3000000), wk =   0.0480000
        k(   42) = (   0.2000000   0.3000000   0.4000000), wk =   0.0960000
        k(   43) = (   0.2000000   0.3000000  -0.5000000), wk =   0.0480000
        k(   44) = (   0.2000000   0.4000000   0.4000000), wk =   0.0480000
        k(   45) = (   0.2000000   0.4000000  -0.5000000), wk =   0.0480000
        k(   46) = (   0.2000000  -0.5000000  -0.5000000), wk =   0.0120000
        k(   47) = (   0.3000000   0.3000000   0.3000000), wk =   0.0160000
        k(   48) = (   0.3000000   0.3000000   0.4000000), wk =   0.0480000
        k(   49) = (   0.3000000   0.3000000  -0.5000000), wk =   0.0240000
        k(   50) = (   0.3000000   0.4000000   0.4000000), wk =   0.0480000
        k(   51) = (   0.3000000   0.4000000  -0.5000000), wk =   0.0480000
        k(   52) = (   0.3000000  -0.5000000  -0.5000000), wk =   0.0120000
        k(   53) = (   0.4000000   0.4000000   0.4000000), wk =   0.0160000
        k(   54) = (   0.4000000   0.4000000  -0.5000000), wk =   0.0240000
        k(   55) = (   0.4000000  -0.5000000  -0.5000000), wk =   0.0120000
        k(   56) = (  -0.5000000  -0.5000000  -0.5000000), wk =   0.0020000

     Dense  grid:   212911 G-vectors     FFT dimensions: (  75,  75,  75)

     Dynamical RAM for                 wfc:       0.41 MB

     Dynamical RAM for     wfc (w. buffer):       6.09 MB

     Dynamical RAM for           str. fact:       0.20 MB

     Dynamical RAM for           local pot:       0.00 MB

     Dynamical RAM for          nlocal pot:       1.37 MB

     Dynamical RAM for                qrad:       4.69 MB

     Dynamical RAM for          rho,v,vnew:       0.69 MB

     Dynamical RAM for               rhoin:       0.23 MB

     Dynamical RAM for            rho*nmix:       1.62 MB

     Dynamical RAM for           G-vectors:       0.43 MB

     Dynamical RAM for          h,s,v(r/c):       0.19 MB

     Dynamical RAM for          <psi|beta>:       0.05 MB

     Dynamical RAM for                 psi:       0.81 MB

     Dynamical RAM for                hpsi:       0.81 MB

     Dynamical RAM for                spsi:       0.81 MB

     Dynamical RAM for      wfcinit/wfcrot:       0.94 MB

     Dynamical RAM for           addusdens:       5.38 MB

     Dynamical RAM for          addusforce:       5.52 MB

     Dynamical RAM for         addusstress:       5.62 MB

     Estimated static dynamical RAM per process >      14.65 MB

     Estimated max dynamical RAM per process >      21.89 MB

     Estimated total dynamical RAM >       2.58 GB

     Initial potential from superposition of free atoms

     starting charge      63.9320, renormalised to      64.0000


     %%%%%%%%%%%%%%%%%%%%%%%%%%%%%%%%%%%%%%%%%%%%%%%%%%%%%%%%%%%%%%%%%%%%%%%%
     %                                                                      %
     % You are using vdW-DF, which was implemented by the Thonhauser group. %
     % Please cite the following two papers that made this development      %
     % possible and the two reviews that describe the various versions:     %
     %                                                                      %
     %   T. Thonhauser et al., PRL 115, 136402 (2015).                      %
     %   T. Thonhauser et al., PRB 76, 125112 (2007).                       %
     %   K. Berland et al., Rep. Prog. Phys. 78, 066501 (2015).             %
     %   D.C. Langreth et al., J. Phys.: Condens. Matter 21, 084203 (2009). %
     %                                                                      %
     % If you are calculating stress with vdW-DF, please also cite:         %
     %                                                                      %
     %   R. Sabatini et al., J. Phys.: Condens. Matter 24, 424209 (2012).   %
     %                                                                      %
     %%%%%%%%%%%%%%%%%%%%%%%%%%%%%%%%%%%%%%%%%%%%%%%%%%%%%%%%%%%%%%%%%%%%%%%%

     %%%%%%%%%%%%%%%%%%%%%%%%%%%%%%%%%%%%%%%%%%%%%%%%%%%%%%%%%%%%%%%%%%%%%%%%
     %                                                                      %
     %  vdW-DF NEWS:                                                        %
     %                                                                      %
     %  * vdW-DF3 is now available. DOI: 10.1021/acs.jctc.0c00471           %
     %    use with input_dft = 'vdW-DF3-opt1' or 'vdW-DF3-opt2'             %
     %                                                                      %
     %  * Unscreened and range-separated vdW-DF hybrid functionals          %
     %    DOI: 10.1063/1.4986522 and 10.1088/1361-648X/ac2ad2               %
     %    use with input_dft = 'vdW-DF-cx0' (etc) and 'vdW-DF-ahcx'         %
     %                                                                      %
     %%%%%%%%%%%%%%%%%%%%%%%%%%%%%%%%%%%%%%%%%%%%%%%%%%%%%%%%%%%%%%%%%%%%%%%%


     Carrying out vdW-DF run using the following parameters:
     Nqs    =  20  Npoints =  1024  r_max =  100.000
     q_mesh =  0.00001000  0.04494208  0.09755937  0.15916263
               0.23128650  0.31572767  0.41458969  0.53033537
               0.66584808  0.82450364  1.01025438  1.22772762
               1.48234092  1.78043706  2.12944203  2.53805004
               3.01644009  3.57652955  4.23227104  5.00000000


     -----------------------------------------------
     Non-local corr. energy    =       1.04990233 Ry
     -----------------------------------------------

     Starting wfcs are   36 randomized atomic wfcs
     Checking if some PAW data can be deallocated... 
       PAW data deallocated on   64 nodes for type:  1
       PAW data deallocated on   64 nodes for type:  2

     total cpu time spent up to now is        1.5 secs

     Self-consistent Calculation

     iteration #  1     ecut=   120.00 Ry     beta= 0.70
     Davidson diagonalization with overlap

---- Real-time Memory Report at c_bands before calling an iterative solver
           161 MiB given to the printing process from OS
             0 MiB allocation reported by mallinfo(arena+hblkhd)
       1946940 MiB available memory on the node where the printing process lives
------------------
     ethr =  1.00E-02,  avg # of iterations =  1.9


     -----------------------------------------------
     Non-local corr. energy    =       1.16956509 Ry
     -----------------------------------------------


     total cpu time spent up to now is        2.8 secs

     total energy              =   -1968.24308551 Ry
     estimated scf accuracy    <       3.81350203 Ry

     iteration #  2     ecut=   120.00 Ry     beta= 0.70
     Davidson diagonalization with overlap

---- Real-time Memory Report at c_bands before calling an iterative solver
           173 MiB given to the printing process from OS
             0 MiB allocation reported by mallinfo(arena+hblkhd)
       1946135 MiB available memory on the node where the printing process lives
------------------
     ethr =  5.96E-03,  avg # of iterations =  6.5


     -----------------------------------------------
     Non-local corr. energy    =       1.10388554 Ry
     -----------------------------------------------


     total cpu time spent up to now is        5.0 secs

     total energy              =   -1967.26298610 Ry
     estimated scf accuracy    <      19.04011053 Ry

     iteration #  3     ecut=   120.00 Ry     beta= 0.70
     Davidson diagonalization with overlap

---- Real-time Memory Report at c_bands before calling an iterative solver
           175 MiB given to the printing process from OS
             0 MiB allocation reported by mallinfo(arena+hblkhd)
       1945948 MiB available memory on the node where the printing process lives
------------------
     ethr =  5.96E-03,  avg # of iterations =  5.1


     -----------------------------------------------
     Non-local corr. energy    =       1.10796777 Ry
     -----------------------------------------------


     total cpu time spent up to now is        7.0 secs

     total energy              =   -1970.45525024 Ry
     estimated scf accuracy    <       0.11090395 Ry

     iteration #  4     ecut=   120.00 Ry     beta= 0.70
     Davidson diagonalization with overlap

---- Real-time Memory Report at c_bands before calling an iterative solver
           176 MiB given to the printing process from OS
             0 MiB allocation reported by mallinfo(arena+hblkhd)
       1945890 MiB available memory on the node where the printing process lives
------------------
     ethr =  1.73E-04,  avg # of iterations =  3.6


     -----------------------------------------------
     Non-local corr. energy    =       1.12749873 Ry
     -----------------------------------------------


     total cpu time spent up to now is        8.5 secs

     total energy              =   -1970.41638402 Ry
     estimated scf accuracy    <       0.13474066 Ry

     iteration #  5     ecut=   120.00 Ry     beta= 0.70
     Davidson diagonalization with overlap

---- Real-time Memory Report at c_bands before calling an iterative solver
           177 MiB given to the printing process from OS
             0 MiB allocation reported by mallinfo(arena+hblkhd)
       1945872 MiB available memory on the node where the printing process lives
------------------
     ethr =  1.73E-04,  avg # of iterations =  3.9


     -----------------------------------------------
     Non-local corr. energy    =       1.13209039 Ry
     -----------------------------------------------


     total cpu time spent up to now is       10.3 secs

     total energy              =   -1970.47105570 Ry
     estimated scf accuracy    <       0.05893676 Ry

     iteration #  6     ecut=   120.00 Ry     beta= 0.70
     Davidson diagonalization with overlap

---- Real-time Memory Report at c_bands before calling an iterative solver
           178 MiB given to the printing process from OS
             0 MiB allocation reported by mallinfo(arena+hblkhd)
       1945857 MiB available memory on the node where the printing process lives
------------------
     ethr =  9.21E-05,  avg # of iterations =  1.5


     -----------------------------------------------
     Non-local corr. energy    =       1.13425783 Ry
     -----------------------------------------------


     total cpu time spent up to now is       11.5 secs

     total energy              =   -1970.46993345 Ry
     estimated scf accuracy    <       0.06995391 Ry

     iteration #  7     ecut=   120.00 Ry     beta= 0.70
     Davidson diagonalization with overlap

---- Real-time Memory Report at c_bands before calling an iterative solver
           178 MiB given to the printing process from OS
             0 MiB allocation reported by mallinfo(arena+hblkhd)
       1945850 MiB available memory on the node where the printing process lives
------------------
     ethr =  9.21E-05,  avg # of iterations =  1.0


     -----------------------------------------------
     Non-local corr. energy    =       1.13575235 Ry
     -----------------------------------------------


     total cpu time spent up to now is       12.7 secs

     total energy              =   -1970.44691876 Ry
     estimated scf accuracy    <       0.06474825 Ry

     iteration #  8     ecut=   120.00 Ry     beta= 0.70
     Davidson diagonalization with overlap

---- Real-time Memory Report at c_bands before calling an iterative solver
           179 MiB given to the printing process from OS
             0 MiB allocation reported by mallinfo(arena+hblkhd)
       1945837 MiB available memory on the node where the printing process lives
------------------
     ethr =  9.21E-05,  avg # of iterations =  2.1


     -----------------------------------------------
     Non-local corr. energy    =       1.13551276 Ry
     -----------------------------------------------


     total cpu time spent up to now is       14.1 secs

     total energy              =   -1970.45323511 Ry
     estimated scf accuracy    <       0.00525813 Ry

     iteration #  9     ecut=   120.00 Ry     beta= 0.70
     Davidson diagonalization with overlap

---- Real-time Memory Report at c_bands before calling an iterative solver
           179 MiB given to the printing process from OS
             0 MiB allocation reported by mallinfo(arena+hblkhd)
       1945815 MiB available memory on the node where the printing process lives
------------------
     ethr =  8.22E-06,  avg # of iterations =  4.0


     -----------------------------------------------
     Non-local corr. energy    =       1.13549761 Ry
     -----------------------------------------------


     total cpu time spent up to now is       15.8 secs

     total energy              =   -1970.45699796 Ry
     estimated scf accuracy    <       0.00282631 Ry

     iteration # 10     ecut=   120.00 Ry     beta= 0.70
     Davidson diagonalization with overlap

---- Real-time Memory Report at c_bands before calling an iterative solver
           180 MiB given to the printing process from OS
             0 MiB allocation reported by mallinfo(arena+hblkhd)
       1945805 MiB available memory on the node where the printing process lives
------------------
     ethr =  4.42E-06,  avg # of iterations =  1.1


     -----------------------------------------------
     Non-local corr. energy    =       1.13550159 Ry
     -----------------------------------------------


     total cpu time spent up to now is       16.9 secs

     total energy              =   -1970.45472995 Ry
     estimated scf accuracy    <       0.00392179 Ry

     iteration # 11     ecut=   120.00 Ry     beta= 0.70
     Davidson diagonalization with overlap

---- Real-time Memory Report at c_bands before calling an iterative solver
           180 MiB given to the printing process from OS
             0 MiB allocation reported by mallinfo(arena+hblkhd)
       1945811 MiB available memory on the node where the printing process lives
------------------
     ethr =  4.42E-06,  avg # of iterations =  4.0


     -----------------------------------------------
     Non-local corr. energy    =       1.13584413 Ry
     -----------------------------------------------


     total cpu time spent up to now is       18.7 secs

     total energy              =   -1970.45639661 Ry
     estimated scf accuracy    <       0.00180800 Ry

     iteration # 12     ecut=   120.00 Ry     beta= 0.70
     Davidson diagonalization with overlap

---- Real-time Memory Report at c_bands before calling an iterative solver
           180 MiB given to the printing process from OS
             0 MiB allocation reported by mallinfo(arena+hblkhd)
       1945806 MiB available memory on the node where the printing process lives
------------------
     ethr =  2.82E-06,  avg # of iterations =  1.0


     -----------------------------------------------
     Non-local corr. energy    =       1.13573927 Ry
     -----------------------------------------------


     total cpu time spent up to now is       19.9 secs

     total energy              =   -1970.45624961 Ry
     estimated scf accuracy    <       0.00148763 Ry

     iteration # 13     ecut=   120.00 Ry     beta= 0.70
     Davidson diagonalization with overlap

---- Real-time Memory Report at c_bands before calling an iterative solver
           180 MiB given to the printing process from OS
             0 MiB allocation reported by mallinfo(arena+hblkhd)
       1945728 MiB available memory on the node where the printing process lives
------------------
     ethr =  2.32E-06,  avg # of iterations =  1.0


     -----------------------------------------------
     Non-local corr. energy    =       1.13562574 Ry
     -----------------------------------------------


     total cpu time spent up to now is       21.0 secs

     total energy              =   -1970.45619369 Ry
     estimated scf accuracy    <       0.00089533 Ry

     iteration # 14     ecut=   120.00 Ry     beta= 0.70
     Davidson diagonalization with overlap

---- Real-time Memory Report at c_bands before calling an iterative solver
           181 MiB given to the printing process from OS
             0 MiB allocation reported by mallinfo(arena+hblkhd)
       1945677 MiB available memory on the node where the printing process lives
------------------
     ethr =  1.40E-06,  avg # of iterations =  1.0


     -----------------------------------------------
     Non-local corr. energy    =       1.13549459 Ry
     -----------------------------------------------


     total cpu time spent up to now is       22.2 secs

     total energy              =   -1970.45613918 Ry
     estimated scf accuracy    <       0.00061655 Ry

     iteration # 15     ecut=   120.00 Ry     beta= 0.70
     Davidson diagonalization with overlap

---- Real-time Memory Report at c_bands before calling an iterative solver
           181 MiB given to the printing process from OS
             0 MiB allocation reported by mallinfo(arena+hblkhd)
       1945638 MiB available memory on the node where the printing process lives
------------------
     ethr =  9.63E-07,  avg # of iterations =  1.0


     -----------------------------------------------
     Non-local corr. energy    =       1.13544900 Ry
     -----------------------------------------------


     total cpu time spent up to now is       23.3 secs

     total energy              =   -1970.45613392 Ry
     estimated scf accuracy    <       0.00036200 Ry

     iteration # 16     ecut=   120.00 Ry     beta= 0.70
     Davidson diagonalization with overlap

---- Real-time Memory Report at c_bands before calling an iterative solver
           184 MiB given to the printing process from OS
             0 MiB allocation reported by mallinfo(arena+hblkhd)
       1945614 MiB available memory on the node where the printing process lives
------------------
     ethr =  5.66E-07,  avg # of iterations =  1.0


     -----------------------------------------------
     Non-local corr. energy    =       1.13573831 Ry
     -----------------------------------------------


     total cpu time spent up to now is       24.5 secs

     total energy              =   -1970.45624552 Ry
     estimated scf accuracy    <       0.00027730 Ry

     iteration # 17     ecut=   120.00 Ry     beta= 0.70
     Davidson diagonalization with overlap

---- Real-time Memory Report at c_bands before calling an iterative solver
           184 MiB given to the printing process from OS
             0 MiB allocation reported by mallinfo(arena+hblkhd)
       1945608 MiB available memory on the node where the printing process lives
------------------
     ethr =  4.33E-07,  avg # of iterations =  1.9


     -----------------------------------------------
     Non-local corr. energy    =       1.13487370 Ry
     -----------------------------------------------


     total cpu time spent up to now is       25.7 secs

     total energy              =   -1970.45590966 Ry
     estimated scf accuracy    <       0.00059521 Ry

     iteration # 18     ecut=   120.00 Ry     beta= 0.70
     Davidson diagonalization with overlap

---- Real-time Memory Report at c_bands before calling an iterative solver
           184 MiB given to the printing process from OS
             0 MiB allocation reported by mallinfo(arena+hblkhd)
       1945604 MiB available memory on the node where the printing process lives
------------------
     ethr =  4.33E-07,  avg # of iterations =  4.3


     -----------------------------------------------
     Non-local corr. energy    =       1.13512034 Ry
     -----------------------------------------------


     total cpu time spent up to now is       27.7 secs

     total energy              =   -1970.45609003 Ry
     estimated scf accuracy    <       0.00025271 Ry

     iteration # 19     ecut=   120.00 Ry     beta= 0.70
     Davidson diagonalization with overlap

---- Real-time Memory Report at c_bands before calling an iterative solver
           184 MiB given to the printing process from OS
             0 MiB allocation reported by mallinfo(arena+hblkhd)
       1945545 MiB available memory on the node where the printing process lives
------------------
     ethr =  3.95E-07,  avg # of iterations =  2.0


     -----------------------------------------------
     Non-local corr. energy    =       1.13513441 Ry
     -----------------------------------------------


     total cpu time spent up to now is       29.1 secs

     total energy              =   -1970.45610852 Ry
     estimated scf accuracy    <       0.00003585 Ry

     iteration # 20     ecut=   120.00 Ry     beta= 0.70
     Davidson diagonalization with overlap

---- Real-time Memory Report at c_bands before calling an iterative solver
           185 MiB given to the printing process from OS
             0 MiB allocation reported by mallinfo(arena+hblkhd)
       1945543 MiB available memory on the node where the printing process lives
------------------
     ethr =  5.60E-08,  avg # of iterations =  2.3


     -----------------------------------------------
     Non-local corr. energy    =       1.13515054 Ry
     -----------------------------------------------


     total cpu time spent up to now is       30.5 secs

     total energy              =   -1970.45610894 Ry
     estimated scf accuracy    <       0.00001858 Ry

     iteration # 21     ecut=   120.00 Ry     beta= 0.70
     Davidson diagonalization with overlap

---- Real-time Memory Report at c_bands before calling an iterative solver
           185 MiB given to the printing process from OS
             0 MiB allocation reported by mallinfo(arena+hblkhd)
       1945557 MiB available memory on the node where the printing process lives
------------------
     ethr =  2.90E-08,  avg # of iterations =  1.9


     -----------------------------------------------
     Non-local corr. energy    =       1.13515308 Ry
     -----------------------------------------------


     total cpu time spent up to now is       31.8 secs

     total energy              =   -1970.45610992 Ry
     estimated scf accuracy    <       0.00000896 Ry

     iteration # 22     ecut=   120.00 Ry     beta= 0.70
     Davidson diagonalization with overlap

---- Real-time Memory Report at c_bands before calling an iterative solver
           185 MiB given to the printing process from OS
             0 MiB allocation reported by mallinfo(arena+hblkhd)
       1945553 MiB available memory on the node where the printing process lives
------------------
     ethr =  1.40E-08,  avg # of iterations =  1.6


     -----------------------------------------------
     Non-local corr. energy    =       1.13516711 Ry
     -----------------------------------------------


     total cpu time spent up to now is       33.1 secs

     total energy              =   -1970.45610952 Ry
     estimated scf accuracy    <       0.00000638 Ry

     iteration # 23     ecut=   120.00 Ry     beta= 0.70
     Davidson diagonalization with overlap

---- Real-time Memory Report at c_bands before calling an iterative solver
           185 MiB given to the printing process from OS
             0 MiB allocation reported by mallinfo(arena+hblkhd)
       1945531 MiB available memory on the node where the printing process lives
------------------
     ethr =  9.96E-09,  avg # of iterations =  2.1


     -----------------------------------------------
     Non-local corr. energy    =       1.13516694 Ry
     -----------------------------------------------


     total cpu time spent up to now is       34.5 secs

     total energy              =   -1970.45610985 Ry
     estimated scf accuracy    <       0.00000334 Ry

     iteration # 24     ecut=   120.00 Ry     beta= 0.70
     Davidson diagonalization with overlap

---- Real-time Memory Report at c_bands before calling an iterative solver
           185 MiB given to the printing process from OS
             0 MiB allocation reported by mallinfo(arena+hblkhd)
       1945530 MiB available memory on the node where the printing process lives
------------------
     ethr =  5.21E-09,  avg # of iterations =  1.8


     -----------------------------------------------
     Non-local corr. energy    =       1.13515444 Ry
     -----------------------------------------------


     total cpu time spent up to now is       35.8 secs

     total energy              =   -1970.45611051 Ry
     estimated scf accuracy    <       0.00000241 Ry

     iteration # 25     ecut=   120.00 Ry     beta= 0.70
     Davidson diagonalization with overlap

---- Real-time Memory Report at c_bands before calling an iterative solver
           185 MiB given to the printing process from OS
             0 MiB allocation reported by mallinfo(arena+hblkhd)
       1945521 MiB available memory on the node where the printing process lives
------------------
     ethr =  3.77E-09,  avg # of iterations =  2.0


     -----------------------------------------------
     Non-local corr. energy    =       1.13518417 Ry
     -----------------------------------------------


     total cpu time spent up to now is       37.1 secs

     total energy              =   -1970.45610955 Ry
     estimated scf accuracy    <       0.00000420 Ry

     iteration # 26     ecut=   120.00 Ry     beta= 0.70
     Davidson diagonalization with overlap

---- Real-time Memory Report at c_bands before calling an iterative solver
           185 MiB given to the printing process from OS
             0 MiB allocation reported by mallinfo(arena+hblkhd)
       1945492 MiB available memory on the node where the printing process lives
------------------
     ethr =  3.77E-09,  avg # of iterations =  2.0


     -----------------------------------------------
     Non-local corr. energy    =       1.13518904 Ry
     -----------------------------------------------


     total cpu time spent up to now is       38.5 secs

     total energy              =   -1970.45610972 Ry
     estimated scf accuracy    <       0.00000092 Ry

     iteration # 27     ecut=   120.00 Ry     beta= 0.70
     Davidson diagonalization with overlap

---- Real-time Memory Report at c_bands before calling an iterative solver
           185 MiB given to the printing process from OS
             0 MiB allocation reported by mallinfo(arena+hblkhd)
       1945480 MiB available memory on the node where the printing process lives
------------------
     ethr =  1.43E-09,  avg # of iterations =  2.1


     -----------------------------------------------
     Non-local corr. energy    =       1.13518974 Ry
     -----------------------------------------------


     total cpu time spent up to now is       39.8 secs

     total energy              =   -1970.45610976 Ry
     estimated scf accuracy    <       0.00000040 Ry

     iteration # 28     ecut=   120.00 Ry     beta= 0.70
     Davidson diagonalization with overlap

---- Real-time Memory Report at c_bands before calling an iterative solver
           185 MiB given to the printing process from OS
             0 MiB allocation reported by mallinfo(arena+hblkhd)
       1945484 MiB available memory on the node where the printing process lives
------------------
     ethr =  6.32E-10,  avg # of iterations =  1.8


     -----------------------------------------------
     Non-local corr. energy    =       1.13519704 Ry
     -----------------------------------------------


     total cpu time spent up to now is       41.1 secs

     total energy              =   -1970.45610966 Ry
     estimated scf accuracy    <       0.00000030 Ry

     iteration # 29     ecut=   120.00 Ry     beta= 0.70
     Davidson diagonalization with overlap

---- Real-time Memory Report at c_bands before calling an iterative solver
           185 MiB given to the printing process from OS
             0 MiB allocation reported by mallinfo(arena+hblkhd)
       1945491 MiB available memory on the node where the printing process lives
------------------
     ethr =  4.73E-10,  avg # of iterations =  3.9


     -----------------------------------------------
     Non-local corr. energy    =       1.13519130 Ry
     -----------------------------------------------


     total cpu time spent up to now is       42.7 secs

     End of self-consistent calculation

          k = 0.0000 0.0000 0.0000 ( 26745 PWs)   bands (ev):

   -18.1559 -17.9001 -17.9001 -17.8991  -7.2074  -7.2074  -7.2074  -7.0805
    -3.9764  -3.9764  -3.9764  -3.2298  -3.2298  -3.2298  -3.2296  -3.2296
    -3.2296  -2.7474  -2.7474  -2.7474   7.6557   7.6557   7.6557   7.7944
     7.7944   7.7944   7.7945   7.7945   7.7945   7.8966   7.8966   7.8966

     occupation numbers 
     1.0000   1.0000   1.0000   1.0000   1.0000   1.0000   1.0000   1.0000
     1.0000   1.0000   1.0000   1.0000   1.0000   1.0000   1.0000   1.0000
     1.0000   1.0000   1.0000   1.0000   1.0000   1.0000   1.0000   1.0000
     1.0000   1.0000   1.0000   1.0000   1.0000   1.0000   1.0000   1.0000

          k = 0.0000 0.0000 0.1000 ( 26669 PWs)   bands (ev):

   -18.1495 -17.9060 -17.8997 -17.8990  -7.2243  -7.2243  -7.2236  -7.0996
    -3.9599  -3.9599  -3.9107  -3.2501  -3.2501  -3.2185  -3.2185  -3.1906
    -3.1904  -2.7598  -2.7598  -2.7382   7.5252   7.6500   7.6500   7.6874
     7.6875   7.7790   7.7790   7.7844   7.7844   7.7967   7.8859   7.8859

     occupation numbers 
     1.0000   1.0000   1.0000   1.0000   1.0000   1.0000   1.0000   1.0000
     1.0000   1.0000   1.0000   1.0000   1.0000   1.0000   1.0000   1.0000
     1.0000   1.0000   1.0000   1.0000   1.0000   1.0000   1.0000   1.0000
     1.0000   1.0000   1.0000   1.0000   1.0000   1.0000   1.0000   1.0000

          k = 0.0000 0.0000 0.2000 ( 26629 PWs)   bands (ev):

   -18.1312 -17.9239 -17.8988 -17.8981  -7.2676  -7.2676  -7.2627  -7.1502
    -3.9116  -3.9116  -3.7304  -3.3085  -3.3085  -3.1857  -3.1857  -3.0878
    -3.0876  -2.7957  -2.7957  -2.7238   7.2271   7.4211   7.4212   7.5373
     7.6372   7.6372   7.7460   7.7460   7.7567   7.7567   7.8562   7.8562

     occupation numbers 
     1.0000   1.0000   1.0000   1.0000   1.0000   1.0000   1.0000   1.0000
     1.0000   1.0000   1.0000   1.0000   1.0000   1.0000   1.0000   1.0000
     1.0000   1.0000   1.0000   1.0000   1.0000   1.0000   1.0000   1.0000
     1.0000   1.0000   1.0000   1.0000   1.0000   1.0000   1.0000   1.0000

          k = 0.0000 0.0000 0.3000 ( 26625 PWs)   bands (ev):

   -18.1026 -17.9520 -17.8976 -17.8970  -7.3190  -7.3190  -7.3028  -7.2156
    -3.8350  -3.8350  -3.4790  -3.3974  -3.3974  -3.1343  -3.1343  -2.9604
    -2.9602  -2.8509  -2.8509  -2.7378   6.9292   7.1135   7.1136   7.2119
     7.6270   7.6270   7.7182   7.7182   7.7194   7.7194   7.8142   7.8142

     occupation numbers 
     1.0000   1.0000   1.0000   1.0000   1.0000   1.0000   1.0000   1.0000
     1.0000   1.0000   1.0000   1.0000   1.0000   1.0000   1.0000   1.0000
     1.0000   1.0000   1.0000   1.0000   1.0000   1.0000   1.0000   1.0000
     1.0000   1.0000   1.0000   1.0000   1.0000   1.0000   1.0000   1.0000

          k = 0.0000 0.0000 0.4000 ( 26613 PWs)   bands (ev):

   -18.0667 -17.9875 -17.8967 -17.8961  -7.3591  -7.3591  -7.3239  -7.2760
    -3.7361  -3.7361  -3.5063  -3.5063  -3.2107  -3.0686  -3.0686  -2.9197
    -2.9197  -2.8569  -2.8567  -2.8161   6.7528   6.8782   6.8783   6.9223
     7.6287   7.6287   7.6784   7.6784   7.7142   7.7142   7.7694   7.7694

     occupation numbers 
     1.0000   1.0000   1.0000   1.0000   1.0000   1.0000   1.0000   1.0000
     1.0000   1.0000   1.0000   1.0000   1.0000   1.0000   1.0000   1.0000
     1.0000   1.0000   1.0000   1.0000   1.0000   1.0000   1.0000   1.0000
     1.0000   1.0000   1.0000   1.0000   1.0000   1.0000   1.0000   1.0000

          k = 0.0000 0.0000-0.5000 ( 26590 PWs)   bands (ev):

   -18.0274 -18.0267 -17.8963 -17.8957  -7.3741  -7.3741  -7.3152  -7.3152
    -3.6232  -3.6232  -3.6229  -3.6229  -2.9949  -2.9949  -2.9945  -2.9945
    -2.9774  -2.9772  -2.8172  -2.8170   6.7521   6.7522   6.7909   6.7910
     7.6464   7.6464   7.6464   7.6464   7.7327   7.7327   7.7327   7.7327

     occupation numbers 
     1.0000   1.0000   1.0000   1.0000   1.0000   1.0000   1.0000   1.0000
     1.0000   1.0000   1.0000   1.0000   1.0000   1.0000   1.0000   1.0000
     1.0000   1.0000   1.0000   1.0000   1.0000   1.0000   1.0000   1.0000
     1.0000   1.0000   1.0000   1.0000   1.0000   1.0000   1.0000   1.0000

          k = 0.0000 0.1000 0.1000 ( 26642 PWs)   bands (ev):

   -18.1433 -17.9057 -17.9051 -17.8992  -7.2413  -7.2406  -7.2405  -7.1187
    -3.9435  -3.8947  -3.8947  -3.2388  -3.2386  -3.2130  -3.2070  -3.1798
    -3.1798  -2.7725  -2.7532  -2.7462   7.4911   7.5491   7.6439   7.6493
     7.6764   7.6764   7.6966   7.7691   7.7692   7.7857   7.7857   7.8753

     occupation numbers 
     1.0000   1.0000   1.0000   1.0000   1.0000   1.0000   1.0000   1.0000
     1.0000   1.0000   1.0000   1.0000   1.0000   1.0000   1.0000   1.0000
     1.0000   1.0000   1.0000   1.0000   1.0000   1.0000   1.0000   1.0000
     1.0000   1.0000   1.0000   1.0000   1.0000   1.0000   1.0000   1.0000

          k = 0.0000 0.1000 0.2000 ( 26648 PWs)   bands (ev):

   -18.1254 -17.9229 -17.9040 -17.8987  -7.2846  -7.2838  -7.2796  -7.1692
    -3.8955  -3.8479  -3.7160  -3.2966  -3.2662  -3.2054  -3.1489  -3.1046
    -3.0789  -2.8089  -2.7838  -2.7319   7.2145   7.4012   7.4080   7.5165
     7.5248   7.6300   7.6468   7.6479   7.7365   7.7421   7.7550   7.8456

     occupation numbers 
     1.0000   1.0000   1.0000   1.0000   1.0000   1.0000   1.0000   1.0000
     1.0000   1.0000   1.0000   1.0000   1.0000   1.0000   1.0000   1.0000
     1.0000   1.0000   1.0000   1.0000   1.0000   1.0000   1.0000   1.0000
     1.0000   1.0000   1.0000   1.0000   1.0000   1.0000   1.0000   1.0000

          k = 0.0000 0.1000 0.3000 ( 26608 PWs)   bands (ev):

   -18.0974 -17.9503 -17.9022 -17.8983  -7.3360  -7.3352  -7.3198  -7.2343
    -3.8194  -3.7738  -3.4671  -3.3848  -3.3517  -3.1532  -3.1003  -2.9735
    -2.9546  -2.8652  -2.8352  -2.7420   6.9180   7.0965   7.0985   7.1986
     7.5056   7.6050   7.6184   7.6194   7.7046   7.7100   7.7119   7.8036

     occupation numbers 
     1.0000   1.0000   1.0000   1.0000   1.0000   1.0000   1.0000   1.0000
     1.0000   1.0000   1.0000   1.0000   1.0000   1.0000   1.0000   1.0000
     1.0000   1.0000   1.0000   1.0000   1.0000   1.0000   1.0000   1.0000
     1.0000   1.0000   1.0000   1.0000   1.0000   1.0000   1.0000   1.0000

          k = 0.0000 0.1000 0.4000 ( 26640 PWs)   bands (ev):

   -18.0623 -17.9849 -17.9003 -17.8982  -7.3759  -7.3754  -7.3413  -7.2943
    -3.7211  -3.6782  -3.4929  -3.4564  -3.2022  -3.0865  -3.0384  -2.9351
    -2.8996  -2.8653  -2.8552  -2.8156   6.7408   6.8619   6.8621   6.9086
     7.5079   7.5619   7.6125   7.6186   7.6658   7.6665   7.7045   7.7590

     occupation numbers 
     1.0000   1.0000   1.0000   1.0000   1.0000   1.0000   1.0000   1.0000
     1.0000   1.0000   1.0000   1.0000   1.0000   1.0000   1.0000   1.0000
     1.0000   1.0000   1.0000   1.0000   1.0000   1.0000   1.0000   1.0000
     1.0000   1.0000   1.0000   1.0000   1.0000   1.0000   1.0000   1.0000

          k = 0.0000 0.1000-0.5000 ( 26632 PWs)   bands (ev):

   -18.0239 -18.0232 -17.8992 -17.8986  -7.3906  -7.3906  -7.3330  -7.3330
    -3.6090  -3.6087  -3.5692  -3.5689  -3.0116  -3.0112  -2.9782  -2.9781
    -2.9638  -2.9637  -2.8205  -2.8203   6.7390   6.7391   6.7745   6.7746
     7.5272   7.5273   7.6300   7.6300   7.6350   7.6350   7.7227   7.7227

     occupation numbers 
     1.0000   1.0000   1.0000   1.0000   1.0000   1.0000   1.0000   1.0000
     1.0000   1.0000   1.0000   1.0000   1.0000   1.0000   1.0000   1.0000
     1.0000   1.0000   1.0000   1.0000   1.0000   1.0000   1.0000   1.0000
     1.0000   1.0000   1.0000   1.0000   1.0000   1.0000   1.0000   1.0000

          k = 0.0000 0.2000 0.2000 ( 26628 PWs)   bands (ev):

   -18.1085 -17.9205 -17.9199 -17.8996  -7.3279  -7.3228  -7.3228  -7.2192
    -3.8483  -3.6738  -3.6738  -3.2620  -3.2618  -3.1647  -3.1432  -3.0534
    -3.0533  -2.8472  -2.7711  -2.7463   7.1307   7.2922   7.3084   7.3690
     7.3690   7.4477   7.4959   7.4959   7.6133   7.7103   7.7104   7.8161

     occupation numbers 
     1.0000   1.0000   1.0000   1.0000   1.0000   1.0000   1.0000   1.0000
     1.0000   1.0000   1.0000   1.0000   1.0000   1.0000   1.0000   1.0000
     1.0000   1.0000   1.0000   1.0000   1.0000   1.0000   1.0000   1.0000
     1.0000   1.0000   1.0000   1.0000   1.0000   1.0000   1.0000   1.0000

          k = 0.0000 0.2000 0.3000 ( 26629 PWs)   bands (ev):

   -18.0824 -17.9455 -17.9162 -17.9012  -7.3789  -7.3746  -7.3636  -7.2835
    -3.7736  -3.6069  -3.4321  -3.3481  -3.2304  -3.2074  -3.0134  -3.0112
    -2.9379  -2.9062  -2.8048  -2.7519   6.8804   7.0469   7.0555   7.1556
     7.2321   7.3332   7.3754   7.4503   7.5984   7.6743   7.6840   7.7744

     occupation numbers 
     1.0000   1.0000   1.0000   1.0000   1.0000   1.0000   1.0000   1.0000
     1.0000   1.0000   1.0000   1.0000   1.0000   1.0000   1.0000   1.0000
     1.0000   1.0000   1.0000   1.0000   1.0000   1.0000   1.0000   1.0000
     1.0000   1.0000   1.0000   1.0000   1.0000   1.0000   1.0000   1.0000

          k = 0.0000 0.2000 0.4000 ( 26621 PWs)   bands (ev):

   -18.0496 -17.9776 -17.9117 -17.9038  -7.4181  -7.4156  -7.3863  -7.3423
    -3.6772  -3.5209  -3.4538  -3.3229  -3.1774  -3.1378  -2.9795  -2.9624
    -2.8896  -2.8576  -2.8505  -2.8101   6.7054   6.8170   6.8174   6.8678
     7.2269   7.2827   7.3588   7.4049   7.5953   7.6374   7.6779   7.7305

     occupation numbers 
     1.0000   1.0000   1.0000   1.0000   1.0000   1.0000   1.0000   1.0000
     1.0000   1.0000   1.0000   1.0000   1.0000   1.0000   1.0000   1.0000
     1.0000   1.0000   1.0000   1.0000   1.0000   1.0000   1.0000   1.0000
     1.0000   1.0000   1.0000   1.0000   1.0000   1.0000   1.0000   1.0000

          k = 0.0000 0.2000-0.5000 ( 26644 PWs)   bands (ev):

   -18.0138 -18.0132 -17.9077 -17.9071  -7.4318  -7.4318  -7.3795  -7.3794
    -3.5674  -3.5671  -3.4234  -3.4230  -3.0595  -3.0592  -2.9641  -2.9639
    -2.9029  -2.9026  -2.8301  -2.8299   6.7006   6.7007   6.7297   6.7298
     7.2452   7.2452   7.3709   7.3709   7.6089   7.6089   7.6951   7.6951

     occupation numbers 
     1.0000   1.0000   1.0000   1.0000   1.0000   1.0000   1.0000   1.0000
     1.0000   1.0000   1.0000   1.0000   1.0000   1.0000   1.0000   1.0000
     1.0000   1.0000   1.0000   1.0000   1.0000   1.0000   1.0000   1.0000
     1.0000   1.0000   1.0000   1.0000   1.0000   1.0000   1.0000   1.0000

          k = 0.0000 0.3000 0.3000 ( 26656 PWs)   bands (ev):

   -18.0591 -17.9386 -17.9380 -17.9061  -7.4290  -7.4166  -7.4166  -7.3463
    -3.7012  -3.3771  -3.3771  -3.2905  -3.2902  -3.0919  -3.0513  -2.9694
    -2.9120  -2.9120  -2.8034  -2.7584   6.7776   6.9331   6.9762   6.9762
     7.0138   7.1488   7.1489   7.1491   7.5795   7.6483   7.6483   7.7335

     occupation numbers 
     1.0000   1.0000   1.0000   1.0000   1.0000   1.0000   1.0000   1.0000
     1.0000   1.0000   1.0000   1.0000   1.0000   1.0000   1.0000   1.0000
     1.0000   1.0000   1.0000   1.0000   1.0000   1.0000   1.0000   1.0000
     1.0000   1.0000   1.0000   1.0000   1.0000   1.0000   1.0000   1.0000

          k = 0.0000 0.3000 0.4000 ( 26612 PWs)   bands (ev):

   -18.0300 -17.9664 -17.9297 -17.9128  -7.4665  -7.4595  -7.4414  -7.4028
    -3.6079  -3.3921  -3.3068  -3.2164  -3.1481  -3.1388  -3.0478  -2.9266
    -2.8790  -2.8434  -2.8410  -2.7900   6.6405   6.7467   6.7477   6.7844
     6.9549   7.0042   7.0759   7.0976   7.5733   7.6121   7.6412   7.6908

     occupation numbers 
     1.0000   1.0000   1.0000   1.0000   1.0000   1.0000   1.0000   1.0000
     1.0000   1.0000   1.0000   1.0000   1.0000   1.0000   1.0000   1.0000
     1.0000   1.0000   1.0000   1.0000   1.0000   1.0000   1.0000   1.0000
     1.0000   1.0000   1.0000   1.0000   1.0000   1.0000   1.0000   1.0000

          k = 0.0000 0.3000-0.5000 ( 26606 PWs)   bands (ev):

   -17.9983 -17.9977 -17.9212 -17.9206  -7.4780  -7.4780  -7.4373  -7.4372
    -3.5018  -3.5015  -3.2279  -3.2276  -3.1331  -3.1328  -2.9460  -2.9459
    -2.8450  -2.8448  -2.8400  -2.8397   6.6334   6.6335   6.6630   6.6631
     6.9603   6.9604   7.0708   7.0708   7.5848   7.5848   7.6569   7.6569

     occupation numbers 
     1.0000   1.0000   1.0000   1.0000   1.0000   1.0000   1.0000   1.0000
     1.0000   1.0000   1.0000   1.0000   1.0000   1.0000   1.0000   1.0000
     1.0000   1.0000   1.0000   1.0000   1.0000   1.0000   1.0000   1.0000
     1.0000   1.0000   1.0000   1.0000   1.0000   1.0000   1.0000   1.0000

          k = 0.0000 0.4000 0.4000 ( 26610 PWs)   bands (ev):

   -18.0056 -17.9532 -17.9525 -17.9246  -7.5012  -7.4873  -7.4873  -7.4562
    -3.5188  -3.3132  -3.3130  -3.1321  -3.0905  -3.0904  -3.0065  -2.9500
    -2.8537  -2.8342  -2.8341  -2.7940   6.5515   6.6382   6.6382   6.6417
     6.8238   6.8822   6.8822   6.9031   7.5653   7.6041   7.6042   7.6497

     occupation numbers 
     1.0000   1.0000   1.0000   1.0000   1.0000   1.0000   1.0000   1.0000
     1.0000   1.0000   1.0000   1.0000   1.0000   1.0000   1.0000   1.0000
     1.0000   1.0000   1.0000   1.0000   1.0000   1.0000   1.0000   1.0000
     1.0000   1.0000   1.0000   1.0000   1.0000   1.0000   1.0000   1.0000

          k = 0.0000 0.4000-0.5000 ( 26592 PWs)   bands (ev):

   -17.9793 -17.9787 -17.9387 -17.9381  -7.5093  -7.5093  -7.4869  -7.4869
    -3.4175  -3.4172  -3.2238  -3.2234  -3.0381  -3.0378  -2.9259  -2.9258
    -2.8622  -2.8620  -2.8205  -2.8202   6.5384   6.5385   6.5729   6.5730
     6.8087   6.8088   6.8581   6.8581   7.5763   7.5763   7.6179   7.6179

     occupation numbers 
     1.0000   1.0000   1.0000   1.0000   1.0000   1.0000   1.0000   1.0000
     1.0000   1.0000   1.0000   1.0000   1.0000   1.0000   1.0000   1.0000
     1.0000   1.0000   1.0000   1.0000   1.0000   1.0000   1.0000   1.0000
     1.0000   1.0000   1.0000   1.0000   1.0000   1.0000   1.0000   1.0000

          k = 0.0000-0.5000-0.5000 ( 26588 PWs)   bands (ev):

   -17.9587 -17.9587 -17.9587 -17.9574  -7.5132  -7.5132  -7.5132  -7.5132
    -3.3219  -3.3218  -3.3218  -3.3213  -2.9234  -2.9232  -2.9230  -2.9230
    -2.8596  -2.8594  -2.8592  -2.8592   6.5040   6.5041   6.5041   6.5042
     6.7832   6.7833   6.7833   6.7833   7.5883   7.5883   7.5884   7.5884

     occupation numbers 
     1.0000   1.0000   1.0000   1.0000   1.0000   1.0000   1.0000   1.0000
     1.0000   1.0000   1.0000   1.0000   1.0000   1.0000   1.0000   1.0000
     1.0000   1.0000   1.0000   1.0000   1.0000   1.0000   1.0000   1.0000
     1.0000   1.0000   1.0000   1.0000   1.0000   1.0000   1.0000   1.0000

          k = 0.1000 0.1000 0.1000 ( 26622 PWs)   bands (ev):

   -18.1373 -17.9054 -17.9054 -17.9044  -7.2575  -7.2575  -7.2575  -7.1377
    -3.8788  -3.8788  -3.8788  -3.2023  -3.2023  -3.2021  -3.1963  -3.1961
    -3.1961  -2.7684  -2.7579  -2.7579   7.4569   7.5434   7.5434   7.6381
     7.6381   7.6382   7.6859   7.6860   7.6860   7.7746   7.7746   7.7746

     occupation numbers 
     1.0000   1.0000   1.0000   1.0000   1.0000   1.0000   1.0000   1.0000
     1.0000   1.0000   1.0000   1.0000   1.0000   1.0000   1.0000   1.0000
     1.0000   1.0000   1.0000   1.0000   1.0000   1.0000   1.0000   1.0000
     1.0000   1.0000   1.0000   1.0000   1.0000   1.0000   1.0000   1.0000

          k = 0.1000 0.1000 0.2000 ( 26631 PWs)   bands (ev):

   -18.1197 -17.9221 -17.9044 -17.9038  -7.3007  -7.3007  -7.2965  -7.1881
    -3.8324  -3.8324  -3.7017  -3.2549  -3.2549  -3.1708  -3.1647  -3.0957
    -3.0955  -2.8002  -2.7920  -2.7405   7.2004   7.3880   7.3881   7.4903
     7.5117   7.5307   7.6096   7.6374   7.6374   7.6568   7.7440   7.7440

     occupation numbers 
     1.0000   1.0000   1.0000   1.0000   1.0000   1.0000   1.0000   1.0000
     1.0000   1.0000   1.0000   1.0000   1.0000   1.0000   1.0000   1.0000
     1.0000   1.0000   1.0000   1.0000   1.0000   1.0000   1.0000   1.0000
     1.0000   1.0000   1.0000   1.0000   1.0000   1.0000   1.0000   1.0000

          k = 0.1000 0.1000 0.3000 ( 26616 PWs)   bands (ev):

   -18.0924 -17.9488 -17.9033 -17.9026  -7.3521  -7.3521  -7.3369  -7.2530
    -3.7588  -3.7587  -3.4552  -3.3397  -3.3397  -3.1214  -3.1153  -2.9677
    -2.9675  -2.8524  -2.8445  -2.7467   6.9058   7.0812   7.0813   7.1848
     7.4749   7.5207   7.5678   7.6090   7.6090   7.6165   7.7010   7.7010

     occupation numbers 
     1.0000   1.0000   1.0000   1.0000   1.0000   1.0000   1.0000   1.0000
     1.0000   1.0000   1.0000   1.0000   1.0000   1.0000   1.0000   1.0000
     1.0000   1.0000   1.0000   1.0000   1.0000   1.0000   1.0000   1.0000
[...]
              0.132870619560523E+02
              0.184569440189912E+01
             -0.208863706020367E+01
              0.165749314041453E+01
             -0.209877796234900E+01
              0.103711521766242E+02
              0.585080218174459E+00
              0.158155540298029E+01
              0.720199773677233E+01
              0.239860786840635E+01
             -0.514571865890289E+01
             -0.864044508732358E+01
              0.300318984337835E+00
             -0.101418279628876E+02
              0.315557341955557E+01
             -0.138740458754906E+01
             -0.318588524229686E+01
              0.324247473262882E+01
              0.125279390428038E+01
              0.352373235556411E+01
             -0.176766715259653E+00
              0.540956561359972E+01
             -0.962127735477416E+01
             -0.483450526530959E+00
             -0.857391152285815E+01
              0.247604898716554E+01
              0.460070137462070E+01
             -0.447256466765751E+00
             -0.277908050316800E+01
              0.699012820782586E+01
             -0.336708438657920E+01
              0.228034536575156E+01
             -0.184742564252566E+01
              0.554439802068115E+01
              0.482750698876917E+01
             -0.229648740884954E+01
              0.525181281825925E+01
              0.203512677379716E+01
             -0.526570903136194E+01
             -0.297098664976524E+01
              0.776229444645217E+01
              0.384394254584605E+01
              0.228391106840782E+00
             -0.685147196805488E+00
              0.126518298052081E+02
              0.707856943260884E+01
              0.255221209348250E+01
             -0.813375351367231E+01
              0.122175201928659E+02
             -0.604008039398894E+01
             -0.740286135321368E+01
             -0.106293957980770E+02
              0.498264909309930E+01
             -0.953954886762805E+01
              0.437858624438946E+01
              0.756824556889356E+01
              0.496723588454449E+01
              0.194852458581380E+01
              0.313992304507720E+01
             -0.835734646128584E+01
             -0.299858087579348E+01
             -0.236350905518728E+01
              0.440903172666210E+01
              0.761818145665791E+01
              0.852989099569669E+01
              0.662125385388261E+01
             -0.154576564636800E+01
              0.171061970192277E+01
             -0.547807875607305E+00
             -0.270052591528498E+01
              0.285404650910542E+01
              0.336489457026525E+01
             -0.439771654271507E+01
             -0.564313141212049E+01
             -0.221104497851319E+01
              0.660024441869189E+01
              0.328942874493165E+01
             -0.450037218903026E+01
             -0.569601186031384E+01
             -0.829150165165633E+01
             -0.153733159613900E+00
              0.174438255778027E+01
             -0.314585983381750E+01
              0.118310945226865E+02
              0.909031775046330E+00
             -0.142471731090284E+02
              0.316883986689203E+01
              0.655984116776764E+01
             -0.317343589331886E+01
              0.705298250464022E+00
             -0.425129257845218E+01
              0.571783587720486E+01
              0.253536647548329E+01
             -0.724663671112660E+01
              0.879306663842317E+01
             -0.437110522658067E+00
             -0.422776758072460E+01
             -0.476668104123449E+01
              0.172792707810331E+02
              0.790018715159682E+01
             -0.191712071430106E+01
              0.454985957816777E+01
             -0.724504567993517E+01
             -0.868470914748315E+00
             -0.773514353834130E+01
              0.325177547371352E+01
              0.444532354337908E+01
              0.620482685878980E+01
             -0.256181601224969E+01
              0.102278061011302E+01
              0.694752094876900E+01
              0.305379960483572E+01
              0.446313953061663E+01
              0.193146185650832E+01
             -0.163112262259766E+01
             -0.133312843117849E+00
             -0.110176211111359E+01
              0.185360452246847E+01
              0.280900930417793E+00
             -0.586499556251040E+01
              0.995286058027764E+01
              0.382719130653894E+01
             -0.690450533580571E+01
             -0.455891621934464E+01
             -0.760006319573226E+01
             -0.428498716382859E+01
             -0.262284909105710E+01
             -0.619419776491459E+01
             -0.583770775965800E+01
              0.810723156374315E+01
              0.596607371613403E+01
             -0.112039808332364E+01
              0.826493174590550E+01
              0.218180345625223E+01
             -0.137107588918711E+02
              0.729844380556601E+01
              0.185529559907627E+01
              0.628283491978401E+01
              0.183730566440034E+01
              0.121868017135404E+01
              0.137561806958317E+01
              0.325257536965776E+01
             -0.527735221707316E+01
             -0.292192317554739E+01
             -0.462639581422542E+01
             -0.351441844117667E+01
              0.227494533576477E+01
             -0.492211452788992E+01
              0.185573253434062E+01
              0.265816228988580E+01
             -0.319829679235922E+01
             -0.163334288620154E+01
             -0.264492181245824E+00
              0.880873749609256E+01
              0.948254247617818E+00
              0.903541038184591E+01
              0.236968699328121E+01
             -0.110022249223815E+02
             -0.419083603947956E+01
              0.351670857641851E+01
              0.743047326873404E+01
              0.208033516273428E+01
              0.291078292921106E+01
              0.783539631943133E+01
             -0.489841215155183E+01
             -0.732819582243913E+01
              0.952750406438614E+01
             -0.528242294768788E+00
             -0.104573030472732E+02
              0.338951018844281E+01
              0.724274063155261E+01
             -0.105384273430337E+01
             -0.588269689168884E+01
              0.542312933889221E+00
              0.850126754368901E+00
             -0.339405972498299E+01
              0.154495793387017E+01
             -0.148944021367028E+01
              0.145784498794685E+02
              0.378524192801276E+01
             -0.740509909907037E+01
              0.242749676901345E+01
              0.959676558153246E+01
             -0.579626343979976E+01
             -0.210095943935923E+01
             -0.516738858751727E+01
              0.364121866187389E+01
              0.219344153645088E+01
              0.228497587804070E+01
              0.166625186425158E+00
              0.102400582852567E+02
             -0.621391001019276E+01
             -0.468432717252375E+01
             -0.504208897827819E+01
              0.471957843534206E+01
              0.992683203075986E+01
             -0.672157679619435E+00
              0.432742123173941E+01
             -0.542256974108806E+01
             -0.613952561167572E-01
             -0.159315973506974E+01
             -0.129418579646010E+01
             -0.270931032262939E+01
             -0.258722753150915E+01
             -0.162732366374875E+01
              0.246850325390260E+01
              0.276705972852530E+01
             -0.681814000979388E+01
              0.517592016403400E+01
             -0.782653196789737E+01
              0.622566828339980E+01
             -0.758261818862833E+01
              0.114271488885532E+02
              0.613204469916759E+01
              0.601190554754078E+01
              0.113866134552741E+01
              0.114658169664798E+01
             -0.145102433601176E+02
              0.306978910075558E+01
              0.605129803533387E+00
              0.922351155740841E+00
             -0.212635582351754E+01
              0.105138431154592E+02
             -0.401821122211869E+01
             -0.412998604392606E+01
             -0.117923515471963E+02
             -0.414100437711600E+01
             -0.482580719448186E+01
             -0.452059312122214E+01
             -0.143503414155359E+01
             -0.203544035592155E+01
             -0.318795881360492E+01
             -0.467294321434362E+01
              0.361635366644927E+01
              0.114208090736123E+02
              0.981214711575867E+01
             -0.283239441192740E+01
             -0.123028465317451E+02
             -0.505682632333407E+01
              0.273392602204316E+01
              0.217591114879238E+01
              0.335296659062572E+01
              0.310657739291059E+01
              0.122037972401209E+01
              0.106625174006760E+02
             -0.275097188503128E+01
              0.562095134948906E+01
              0.210936811174544E+01
             -0.359558344340630E+01
             -0.238189285518899E+01
              0.532302185388638E+01
             -0.283284721007213E+01
             -0.236916956632997E+01
             -0.135204729224334E+01
              0.669088008930285E+01
             -0.839308344409458E+01
             -0.147771616310934E+01
             -0.704815572437819E+01
             -0.154548458736742E+02
              0.606912526044795E+00
             -0.169400259321737E+01
              0.534506195895767E+01
              0.632790147994149E+01
              0.853876323142929E+01
             -0.560351032025187E+01
              0.903029810392478E+01
              0.230047389292490E+01
             -0.179333508099401E+01
              0.188068697605604E+01
             -0.339132947944179E+01
             -0.212888876746251E+01
              0.423407979943254E+01
             -0.475690093806601E+01
              0.111184050667872E+02
             -0.247762951534575E+01
             -0.587896758534798E+01
              0.114740288334305E+02
             -0.629342591352459E+01
             -0.130517383024250E+01
              0.139210311674753E+01
              0.348748176158486E+01
             -0.510414787983427E+01
             -0.391930613779347E+01
              0.556924881875724E+01
             -0.985364692835600E+01
              0.679145588919989E+01
              0.113730523643449E+01
              0.521458923496102E+01
              0.755655833545892E+01
              0.118516601098483E+01
             -0.894708162154324E+01
             -0.451054711330513E+01
             -0.696853996451214E+01
             -0.452906705959109E+01
             -0.237165847140566E+01
              0.118912118832067E+01
             -0.277690989034783E+01
              0.665617328048782E+00
             -0.120900326173671E+02
              0.178574751731837E+00
             -0.725526568658762E+01
              0.707382309720167E+01
             -0.329467890245852E+01
             -0.759789261795960E+00
              0.498847423253968E+01
              0.467896126387175E+00
              0.539318811818833E+01
             -0.870834545460046E+01
              0.188865271424703E+01
              0.951006407568917E+00
              0.304231126394937E+01
              0.640496387926194E+01
             -0.604919488645315E+00
             -0.760321731812962E+01
             -0.385958617514270E+01
             -0.308522393378803E+01
             -0.179524851207350E+01
              0.694175609682053E+01
              0.440339878944379E+01
             -0.398370272379593E+01
             -0.406378069218495E+01
              0.372959659424860E+01
              0.302295843823875E+01
             -0.844469593589079E+01
              0.279072215844480E+01
              0.659511796208317E+01
             -0.149103292671479E+00
              0.724496264558020E+01
              0.401938731212309E+01
              0.585912643239070E+01
              0.816468242800907E+01
              0.113303324786069E+01
             -0.134510365132304E+02
              0.105598757581518E+01
              0.141701837958766E+02
              0.100201507763420E+02
             -0.689414279461708E+01
              0.523708316318011E+00
              0.799116820644749E+01
              0.799303287378370E+01
              0.337077902882328E+01
             -0.213890897279274E+01
              0.323933296222908E+01
              0.848318654279581E+01
             -0.341279679799190E+01
             -0.251883449444949E+01
              0.476794109647171E+01
             -0.461499687272070E+00
              0.407806824167367E+01
             -0.928891184456333E+00
              0.919940545331233E+01
             -0.361379961919052E+01
              0.157724588636857E+01
             -0.492643669157191E+01
              0.465114039529060E+01
             -0.447537922855730E+00
              0.700270197159270E+01
              0.162205850263675E+00
              0.200686826266611E+01
             -0.473672293429753E+01
             -0.315225957357807E+01
             -0.148480413678765E+01
             -0.919372661524857E+00
              0.742883495697532E+01
              0.241764532177042E+01
              0.999055367670195E+01
              0.681983996933759E+01
              0.132507247247160E+01
              0.403503508774365E-01
              0.932577511040814E+01
              0.487492433783618E+01
              0.341531140888804E-01
              0.820480097335194E+01
             -0.755974702967288E+01
              0.279200275563787E+01
             -0.452549148455274E+01
             -0.293415468850741E+01
              0.113693848823797E+02
             -0.191648938372212E+01
              0.319778884261126E-01
             -0.190734234548481E+01
              0.943271108489054E+01
             -0.245469319621719E+01
             -0.232551082370808E+00
              0.196467568488414E+02
             -0.657817653028539E+01
             -0.562046218648097E+01
             -0.719833176328160E+01
             -0.377529695177151E+01
              0.413592024629111E+01
             -0.196469451589843E+01
              0.145960996109685E+01
             -0.910361770554147E-01
              0.198064854721291E+01
              0.409733986281867E+01
              0.423603138827539E+01
              0.765993782739721E+01
              0.344766487513188E+01
              0.539627397938406E+01
             -0.784227339169049E+01
             -0.632060699766329E+01
             -0.211381304318359E+01
             -0.684723444177330E+01
              0.119623158540187E+02
              0.103775457043360E+02
              0.496346415631354E+01
              0.125162610748685E+02
             -0.674010906652198E+01
             -0.318362380086648E+01
             -0.344572343029899E+01
              0.100144139847267E+02
 
 BEEF-vdW xc energy contributions
            1 :    -98.78714313803394     
            2 :     88.01744297689049     
            3 :    -69.80322694463575     
            4 :     49.13249668839048     
            5 :    -30.41367033491940     
            6 :     15.98476765177864     
            7 :    -6.011507293471595     
            8 :   -0.5770936503816415     
            9 :     4.979088278602887     
           10 :    -7.896223040236137     
           11 :     9.506706165250804     
           12 :    -9.756916628316972     
           13 :     8.663781689816574     
           14 :    -6.481587544069896     
           15 :     3.715985280185407     
           16 :    -1.007562791848258     
           17 :    -1.067656298755523     
           18 :     2.186242405419662     
           19 :    -2.346527152622912     
           20 :     1.783411722161674     
           21 :   -0.8030508157658858     
           22 :   -0.3419453985191439     
           23 :     1.473083210764770     
           24 :    -2.436248398703171     
           25 :     3.062414516450517     
           26 :    -3.187879802313276     
           27 :     2.719773038903227     
           28 :    -1.696389122214754     
           29 :    0.3002907149261489     
           30 :     1.185781660915055     
           31 :    -11.43213150211588     
           32 :    -7.979170335632929     

     Writing all to output data dir ./BaO.save/
 
     init_run     :      0.96s CPU      1.01s WALL (       1 calls)
     electrons    :     40.11s CPU     41.25s WALL (       1 calls)
     forces       :      0.31s CPU      0.31s WALL (       1 calls)
     stress       :      0.64s CPU      0.65s WALL (       1 calls)

     Called by init_run:
     wfcinit      :      0.40s CPU      0.42s WALL (       1 calls)
     wfcinit:atom :      0.00s CPU      0.00s WALL (      14 calls)
     wfcinit:wfcr :      0.37s CPU      0.38s WALL (      14 calls)
     potinit      :      0.42s CPU      0.44s WALL (       1 calls)
     hinit0       :      0.05s CPU      0.05s WALL (       1 calls)

     Called by electrons:
     c_bands      :     29.55s CPU     30.19s WALL (      29 calls)
     sum_band     :      5.92s CPU      6.08s WALL (      29 calls)
     v_of_rho     :      2.80s CPU      2.96s WALL (      30 calls)
     v_h          :      0.03s CPU      0.03s WALL (      30 calls)
     v_xc         :      5.74s CPU      5.98s WALL (      66 calls)
     newd         :      0.32s CPU      0.32s WALL (      30 calls)
     PAW_pot      :      1.65s CPU      1.76s WALL (      30 calls)
     mix_rho      :      0.13s CPU      0.14s WALL (      29 calls)
     vdW_kernel   :      0.26s CPU      0.26s WALL (       1 calls)

     Called by c_bands:
     init_us_2    :      0.46s CPU      0.48s WALL (     854 calls)
     init_us_2:cp :      0.46s CPU      0.47s WALL (     854 calls)
     cegterg      :     26.31s CPU     26.83s WALL (     406 calls)

     Called by sum_band:
     sum_band:wei :      0.00s CPU      0.00s WALL (      29 calls)
     sum_band:loo :      5.14s CPU      5.27s WALL (      29 calls)
     sum_band:buf :      0.09s CPU      0.09s WALL (     406 calls)
     sum_band:ini :      0.17s CPU      0.17s WALL (     406 calls)
     sum_band:cal :      0.55s CPU      0.56s WALL (     406 calls)
     sum_band:bec :      0.02s CPU      0.02s WALL (     406 calls)
     addusdens    :      0.35s CPU      0.36s WALL (      29 calls)
     addusd:skk   :      0.00s CPU      0.00s WALL (      58 calls)
     addusd:dgemm :      0.20s CPU      0.20s WALL (      58 calls)
     addusd:qvan2 :      0.11s CPU      0.11s WALL (      58 calls)

     Called by *egterg:
     cdiaghg      :      1.63s CPU      1.66s WALL (    1405 calls)
     cegterg:over :      0.98s CPU      1.00s WALL (     999 calls)
     cegterg:upda :      0.48s CPU      0.49s WALL (     999 calls)
     cegterg:last :      0.88s CPU      0.90s WALL (     751 calls)
     h_psi        :     20.59s CPU     21.01s WALL (    1419 calls)
     s_psi        :      1.10s CPU      1.12s WALL (    1419 calls)
     g_psi        :      0.03s CPU      0.04s WALL (     999 calls)

     Called by h_psi:
     h_psi:calbec :      1.93s CPU      1.96s WALL (    1419 calls)
     vloc_psi     :     17.22s CPU     17.60s WALL (    1419 calls)
     add_vuspsi   :      1.24s CPU      1.25s WALL (    1419 calls)

     General routines
     calbec       :      2.58s CPU      2.62s WALL (    1895 calls)
     fft          :      2.76s CPU      2.80s WALL (    3937 calls)
     ffts         :      0.02s CPU      0.02s WALL (      29 calls)
     fftw         :     20.00s CPU     20.42s WALL (   75740 calls)
 
     Parallel routines

     PAW routines
     PAW_pot      :      1.65s CPU      1.76s WALL (      30 calls)
     PAW_symme    :      0.06s CPU      0.06s WALL (      59 calls)
 
     PWSCF        :     45.63s CPU     47.70s WALL

 
   This run was terminated on:  16:38:59  20Jul2023            

=------------------------------------------------------------------------------=
   JOB DONE.
=------------------------------------------------------------------------------=
