
     Program PWSCF v.7.1 starts on 20Jul2023 at 10:21:23 

     This program is part of the open-source Quantum ESPRESSO suite
     for quantum simulation of materials; please cite
         "P. Giannozzi et al., J. Phys.:Condens. Matter 21 395502 (2009);
         "P. Giannozzi et al., J. Phys.:Condens. Matter 29 465901 (2017);
         "P. Giannozzi et al., J. Chem. Phys. 152 154105 (2020);
          URL http://www.quantum-espresso.org", 
     in publications or presentations arising from this work. More details at
     http://www.quantum-espresso.org/quote

     Parallel version (MPI & OpenMP), running on     128 processor cores
     Number of MPI processes:               128
     Threads/MPI process:                     1

     MPI processes distributed on     1 nodes
     1943099 MiB available memory on the printing compute node when the environment starts
 
     Reading input from espresso.pwi
Warning: card &CELL ignored
Warning: card / ignored

     Current dimensions of program PWSCF are:
     Max number of different atomic species (ntypx) = 10
     Max number of k-points (npk) =  40000
     Max angular momentum in pseudopotentials (lmaxx) =  4
     file Ba.pbe-spn-kjpaw_psl.1.0.0.UPF: wavefunction(s)  5S 6S renormalized
     file O.pbe-n-kjpaw_psl.0.1.UPF: wavefunction(s)  2P renormalized

     **************************************************************************
     Initializing libbeef V0.1.2 with the BEEF-vdW functional.
     Citation: Wellendorff et al., PRB 85, 235149 (2012).
     **************************************************************************


     IMPORTANT: XC functional enforced from input :
     Exchange-correlation= BEEF-VDW
                           (   1   4  43  14   2   0   0)
     Any further DFT definition will be discarded
     Please, verify this is what you really want

 
     K-points division:     npool     =       8
     R & G space division:  proc/nbgrp/npool/nimage =      16
     Subspace diagonalization in iterative solution of the eigenvalue problem:
     a serial algorithm will be used

 
     Parallelization info
     --------------------
     sticks:   dense  smooth     PW     G-vecs:    dense   smooth      PW
     Min         149     149     42                 5525     5525     824
     Max         150     150     43                 5528     5528     827
     Sum        2393    2393    673                88423    88423   13205
 
     Using Slab Decomposition
 


     bravais-lattice index     =            1
     lattice parameter (alat)  =       7.9279  a.u.
     unit-cell volume          =     498.2841 (a.u.)^3
     number of atoms/cell      =            5
     number of atomic types    =            3
     number of electrons       =        42.00
     number of Kohn-Sham states=           21
     kinetic-energy cutoff     =     120.0000  Ry
     charge density cutoff     =     480.0000  Ry
     scf convergence threshold =      1.0E-08
     mixing beta               =       0.7000
     number of iterations used =            8  plain     mixing
     Exchange-correlation= BEEF-VDW
                           (   1   4  43  14   2   0   0)

     celldm(1)=   7.927916  celldm(2)=   0.000000  celldm(3)=   0.000000
     celldm(4)=   0.000000  celldm(5)=   0.000000  celldm(6)=   0.000000

     crystal axes: (cart. coord. in units of alat)
               a(1) = (   1.000000   0.000000   0.000000 )  
               a(2) = (   0.000000   1.000000   0.000000 )  
               a(3) = (   0.000000   0.000000   1.000000 )  

     reciprocal axes: (cart. coord. in units 2 pi/alat)
               b(1) = (  1.000000  0.000000  0.000000 )  
               b(2) = (  0.000000  1.000000  0.000000 )  
               b(3) = (  0.000000  0.000000  1.000000 )  


     PseudoPot. # 1 for Ba read from file:
     /trace/home/atimmins/packages/espresso/pseudo/Ba.pbe-spn-kjpaw_psl.1.0.0.UPF
     MD5 check sum: c432291d3e53af55f19d5e8866385beb
     Pseudo is Projector augmented-wave + core cor, Zval = 10.0
     Generated using "atomic" code by A. Dal Corso  v.5.1
     Shape of augmentation charge: PSQ
     Using radial grid of 1251 points,  7 beta functions with: 
                l(1) =   0
                l(2) =   0
                l(3) =   0
                l(4) =   1
                l(5) =   1
                l(6) =   2
                l(7) =   2
     Q(r) pseudized with 0 coefficients 


     PseudoPot. # 2 for Sn read from file:
     /trace/home/atimmins/packages/espresso/pseudo/Sn_pbe_v1.uspp.F.UPF
     MD5 check sum: 4cf58ce39ec5d5d420df3dd08604eb00
     Pseudo is Ultrasoft + core correction, Zval = 14.0
     Generated by new atomic code, or converted to UPF format
     Using radial grid of  891 points,  6 beta functions with: 
                l(1) =   0
                l(2) =   0
                l(3) =   1
                l(4) =   1
                l(5) =   2
                l(6) =   2
     Q(r) pseudized with  6 coefficients,  rinner =    1.200   1.200   1.200
                                                       1.200   1.200

     PseudoPot. # 3 for O  read from file:
     /trace/home/atimmins/packages/espresso/pseudo/O.pbe-n-kjpaw_psl.0.1.UPF
     MD5 check sum: 0234752ac141de4415c5fc33072bef88
     Pseudo is Projector augmented-wave + core cor, Zval =  6.0
     Generated using "atomic" code by A. Dal Corso  v.5.0.99 svn rev. 10869
     Shape of augmentation charge: BESSEL
     Using radial grid of 1095 points,  4 beta functions with: 
                l(1) =   0
                l(2) =   0
                l(3) =   1
                l(4) =   1
     Q(r) pseudized with 0 coefficients 


     atomic species   valence    mass     pseudopotential
        Ba            10.00   137.32700     Ba( 1.00)
        Sn            14.00   118.71000     Sn( 1.00)
        O              6.00    15.99900     O ( 1.00)

     48 Sym. Ops., with inversion, found


                                    s                        frac. trans.

      isym =  1     identity                                     

 cryst.   s( 1) = (     1          0          0      )
                  (     0          1          0      )
                  (     0          0          1      )

 cart.    s( 1) = (  1.0000000  0.0000000  0.0000000 )
                  (  0.0000000  1.0000000  0.0000000 )
                  (  0.0000000  0.0000000  1.0000000 )


      isym =  2     180 deg rotation - cart. axis [0,0,1]        

 cryst.   s( 2) = (    -1          0          0      )
                  (     0         -1          0      )
                  (     0          0          1      )

 cart.    s( 2) = ( -1.0000000  0.0000000  0.0000000 )
                  (  0.0000000 -1.0000000  0.0000000 )
                  (  0.0000000  0.0000000  1.0000000 )


      isym =  3     180 deg rotation - cart. axis [0,1,0]        

 cryst.   s( 3) = (    -1          0          0      )
                  (     0          1          0      )
                  (     0          0         -1      )

 cart.    s( 3) = ( -1.0000000  0.0000000  0.0000000 )
                  (  0.0000000  1.0000000  0.0000000 )
                  (  0.0000000  0.0000000 -1.0000000 )


      isym =  4     180 deg rotation - cart. axis [1,0,0]        

 cryst.   s( 4) = (     1          0          0      )
                  (     0         -1          0      )
                  (     0          0         -1      )

 cart.    s( 4) = (  1.0000000  0.0000000  0.0000000 )
                  (  0.0000000 -1.0000000  0.0000000 )
                  (  0.0000000  0.0000000 -1.0000000 )


      isym =  5     180 deg rotation - cart. axis [1,1,0]        

 cryst.   s( 5) = (     0          1          0      )
                  (     1          0          0      )
                  (     0          0         -1      )

 cart.    s( 5) = (  0.0000000  1.0000000  0.0000000 )
                  (  1.0000000  0.0000000  0.0000000 )
                  (  0.0000000  0.0000000 -1.0000000 )


      isym =  6     180 deg rotation - cart. axis [1,-1,0]       

 cryst.   s( 6) = (     0         -1          0      )
                  (    -1          0          0      )
                  (     0          0         -1      )

 cart.    s( 6) = (  0.0000000 -1.0000000  0.0000000 )
                  ( -1.0000000  0.0000000  0.0000000 )
                  (  0.0000000  0.0000000 -1.0000000 )


      isym =  7      90 deg rotation - cart. axis [0,0,-1]       

 cryst.   s( 7) = (     0         -1          0      )
                  (     1          0          0      )
                  (     0          0          1      )

 cart.    s( 7) = (  0.0000000  1.0000000  0.0000000 )
                  ( -1.0000000  0.0000000  0.0000000 )
                  (  0.0000000  0.0000000  1.0000000 )


      isym =  8      90 deg rotation - cart. axis [0,0,1]        

 cryst.   s( 8) = (     0          1          0      )
                  (    -1          0          0      )
                  (     0          0          1      )

 cart.    s( 8) = (  0.0000000 -1.0000000  0.0000000 )
                  (  1.0000000  0.0000000  0.0000000 )
                  (  0.0000000  0.0000000  1.0000000 )


      isym =  9     180 deg rotation - cart. axis [1,0,1]        

 cryst.   s( 9) = (     0          0          1      )
                  (     0         -1          0      )
                  (     1          0          0      )

 cart.    s( 9) = (  0.0000000  0.0000000  1.0000000 )
                  (  0.0000000 -1.0000000  0.0000000 )
                  (  1.0000000  0.0000000  0.0000000 )


      isym = 10     180 deg rotation - cart. axis [-1,0,1]       

 cryst.   s(10) = (     0          0         -1      )
                  (     0         -1          0      )
                  (    -1          0          0      )

 cart.    s(10) = (  0.0000000  0.0000000 -1.0000000 )
                  (  0.0000000 -1.0000000  0.0000000 )
                  ( -1.0000000  0.0000000  0.0000000 )


      isym = 11      90 deg rotation - cart. axis [0,1,0]        

 cryst.   s(11) = (     0          0         -1      )
                  (     0          1          0      )
                  (     1          0          0      )

 cart.    s(11) = (  0.0000000  0.0000000  1.0000000 )
                  (  0.0000000  1.0000000  0.0000000 )
                  ( -1.0000000  0.0000000  0.0000000 )


      isym = 12      90 deg rotation - cart. axis [0,-1,0]       

 cryst.   s(12) = (     0          0          1      )
                  (     0          1          0      )
                  (    -1          0          0      )

 cart.    s(12) = (  0.0000000  0.0000000 -1.0000000 )
                  (  0.0000000  1.0000000  0.0000000 )
                  (  1.0000000  0.0000000  0.0000000 )


      isym = 13     180 deg rotation - cart. axis [0,1,1]        

 cryst.   s(13) = (    -1          0          0      )
                  (     0          0          1      )
                  (     0          1          0      )

 cart.    s(13) = ( -1.0000000  0.0000000  0.0000000 )
                  (  0.0000000  0.0000000  1.0000000 )
                  (  0.0000000  1.0000000  0.0000000 )


      isym = 14     180 deg rotation - cart. axis [0,1,-1]       

 cryst.   s(14) = (    -1          0          0      )
                  (     0          0         -1      )
                  (     0         -1          0      )

 cart.    s(14) = ( -1.0000000  0.0000000  0.0000000 )
                  (  0.0000000  0.0000000 -1.0000000 )
                  (  0.0000000 -1.0000000  0.0000000 )


      isym = 15      90 deg rotation - cart. axis [-1,0,0]       

 cryst.   s(15) = (     1          0          0      )
                  (     0          0         -1      )
                  (     0          1          0      )

 cart.    s(15) = (  1.0000000  0.0000000  0.0000000 )
                  (  0.0000000  0.0000000  1.0000000 )
                  (  0.0000000 -1.0000000  0.0000000 )


      isym = 16      90 deg rotation - cart. axis [1,0,0]        

 cryst.   s(16) = (     1          0          0      )
                  (     0          0          1      )
                  (     0         -1          0      )

 cart.    s(16) = (  1.0000000  0.0000000  0.0000000 )
                  (  0.0000000  0.0000000 -1.0000000 )
                  (  0.0000000  1.0000000  0.0000000 )


      isym = 17     120 deg rotation - cart. axis [-1,-1,-1]     

 cryst.   s(17) = (     0          0          1      )
                  (     1          0          0      )
                  (     0          1          0      )

 cart.    s(17) = (  0.0000000  1.0000000  0.0000000 )
                  (  0.0000000  0.0000000  1.0000000 )
                  (  1.0000000  0.0000000  0.0000000 )


      isym = 18     120 deg rotation - cart. axis [-1,1,1]       

 cryst.   s(18) = (     0          0         -1      )
                  (    -1          0          0      )
                  (     0          1          0      )

 cart.    s(18) = (  0.0000000 -1.0000000  0.0000000 )
                  (  0.0000000  0.0000000  1.0000000 )
                  ( -1.0000000  0.0000000  0.0000000 )


      isym = 19     120 deg rotation - cart. axis [1,1,-1]       

 cryst.   s(19) = (     0          0         -1      )
                  (     1          0          0      )
                  (     0         -1          0      )

 cart.    s(19) = (  0.0000000  1.0000000  0.0000000 )
                  (  0.0000000  0.0000000 -1.0000000 )
                  ( -1.0000000  0.0000000  0.0000000 )


      isym = 20     120 deg rotation - cart. axis [1,-1,1]       

 cryst.   s(20) = (     0          0          1      )
                  (    -1          0          0      )
                  (     0         -1          0      )

 cart.    s(20) = (  0.0000000 -1.0000000  0.0000000 )
                  (  0.0000000  0.0000000 -1.0000000 )
                  (  1.0000000  0.0000000  0.0000000 )


      isym = 21     120 deg rotation - cart. axis [1,1,1]        

 cryst.   s(21) = (     0          1          0      )
                  (     0          0          1      )
                  (     1          0          0      )

 cart.    s(21) = (  0.0000000  0.0000000  1.0000000 )
                  (  1.0000000  0.0000000  0.0000000 )
                  (  0.0000000  1.0000000  0.0000000 )


      isym = 22     120 deg rotation - cart. axis [-1,1,-1]      

 cryst.   s(22) = (     0         -1          0      )
                  (     0          0         -1      )
                  (     1          0          0      )

 cart.    s(22) = (  0.0000000  0.0000000  1.0000000 )
                  ( -1.0000000  0.0000000  0.0000000 )
                  (  0.0000000 -1.0000000  0.0000000 )


      isym = 23     120 deg rotation - cart. axis [1,-1,-1]      

 cryst.   s(23) = (     0         -1          0      )
                  (     0          0          1      )
                  (    -1          0          0      )

 cart.    s(23) = (  0.0000000  0.0000000 -1.0000000 )
                  ( -1.0000000  0.0000000  0.0000000 )
                  (  0.0000000  1.0000000  0.0000000 )


      isym = 24     120 deg rotation - cart. axis [-1,-1,1]      

 cryst.   s(24) = (     0          1          0      )
                  (     0          0         -1      )
                  (    -1          0          0      )

 cart.    s(24) = (  0.0000000  0.0000000 -1.0000000 )
                  (  1.0000000  0.0000000  0.0000000 )
                  (  0.0000000 -1.0000000  0.0000000 )


      isym = 25     inversion                                    

 cryst.   s(25) = (    -1          0          0      )
                  (     0         -1          0      )
                  (     0          0         -1      )

 cart.    s(25) = ( -1.0000000  0.0000000  0.0000000 )
                  (  0.0000000 -1.0000000  0.0000000 )
                  (  0.0000000  0.0000000 -1.0000000 )


      isym = 26     inv. 180 deg rotation - cart. axis [0,0,1]   

 cryst.   s(26) = (     1          0          0      )
                  (     0          1          0      )
                  (     0          0         -1      )

 cart.    s(26) = (  1.0000000  0.0000000  0.0000000 )
                  (  0.0000000  1.0000000  0.0000000 )
                  (  0.0000000  0.0000000 -1.0000000 )


      isym = 27     inv. 180 deg rotation - cart. axis [0,1,0]   

 cryst.   s(27) = (     1          0          0      )
                  (     0         -1          0      )
                  (     0          0          1      )

 cart.    s(27) = (  1.0000000  0.0000000  0.0000000 )
                  (  0.0000000 -1.0000000  0.0000000 )
                  (  0.0000000  0.0000000  1.0000000 )


      isym = 28     inv. 180 deg rotation - cart. axis [1,0,0]   

 cryst.   s(28) = (    -1          0          0      )
                  (     0          1          0      )
                  (     0          0          1      )

 cart.    s(28) = ( -1.0000000  0.0000000  0.0000000 )
                  (  0.0000000  1.0000000  0.0000000 )
                  (  0.0000000  0.0000000  1.0000000 )


      isym = 29     inv. 180 deg rotation - cart. axis [1,1,0]   

 cryst.   s(29) = (     0         -1          0      )
                  (    -1          0          0      )
                  (     0          0          1      )

 cart.    s(29) = (  0.0000000 -1.0000000  0.0000000 )
                  ( -1.0000000  0.0000000  0.0000000 )
                  (  0.0000000  0.0000000  1.0000000 )


      isym = 30     inv. 180 deg rotation - cart. axis [1,-1,0]  

 cryst.   s(30) = (     0          1          0      )
                  (     1          0          0      )
                  (     0          0          1      )

 cart.    s(30) = (  0.0000000  1.0000000  0.0000000 )
                  (  1.0000000  0.0000000  0.0000000 )
                  (  0.0000000  0.0000000  1.0000000 )


      isym = 31     inv.  90 deg rotation - cart. axis [0,0,-1]  

 cryst.   s(31) = (     0          1          0      )
                  (    -1          0          0      )
                  (     0          0         -1      )

 cart.    s(31) = (  0.0000000 -1.0000000  0.0000000 )
                  (  1.0000000  0.0000000  0.0000000 )
                  (  0.0000000  0.0000000 -1.0000000 )


      isym = 32     inv.  90 deg rotation - cart. axis [0,0,1]   

 cryst.   s(32) = (     0         -1          0      )
                  (     1          0          0      )
                  (     0          0         -1      )

 cart.    s(32) = (  0.0000000  1.0000000  0.0000000 )
                  ( -1.0000000  0.0000000  0.0000000 )
                  (  0.0000000  0.0000000 -1.0000000 )


      isym = 33     inv. 180 deg rotation - cart. axis [1,0,1]   

 cryst.   s(33) = (     0          0         -1      )
                  (     0          1          0      )
                  (    -1          0          0      )

 cart.    s(33) = (  0.0000000  0.0000000 -1.0000000 )
                  (  0.0000000  1.0000000  0.0000000 )
                  ( -1.0000000  0.0000000  0.0000000 )


      isym = 34     inv. 180 deg rotation - cart. axis [-1,0,1]  

 cryst.   s(34) = (     0          0          1      )
                  (     0          1          0      )
                  (     1          0          0      )

 cart.    s(34) = (  0.0000000  0.0000000  1.0000000 )
                  (  0.0000000  1.0000000  0.0000000 )
                  (  1.0000000  0.0000000  0.0000000 )


      isym = 35     inv.  90 deg rotation - cart. axis [0,1,0]   

 cryst.   s(35) = (     0          0          1      )
                  (     0         -1          0      )
                  (    -1          0          0      )

 cart.    s(35) = (  0.0000000  0.0000000 -1.0000000 )
                  (  0.0000000 -1.0000000  0.0000000 )
                  (  1.0000000  0.0000000  0.0000000 )


      isym = 36     inv.  90 deg rotation - cart. axis [0,-1,0]  

 cryst.   s(36) = (     0          0         -1      )
                  (     0         -1          0      )
                  (     1          0          0      )

 cart.    s(36) = (  0.0000000  0.0000000  1.0000000 )
                  (  0.0000000 -1.0000000  0.0000000 )
                  ( -1.0000000  0.0000000  0.0000000 )


      isym = 37     inv. 180 deg rotation - cart. axis [0,1,1]   

 cryst.   s(37) = (     1          0          0      )
                  (     0          0         -1      )
                  (     0         -1          0      )

 cart.    s(37) = (  1.0000000  0.0000000  0.0000000 )
                  (  0.0000000  0.0000000 -1.0000000 )
                  (  0.0000000 -1.0000000  0.0000000 )


      isym = 38     inv. 180 deg rotation - cart. axis [0,1,-1]  

 cryst.   s(38) = (     1          0          0      )
                  (     0          0          1      )
                  (     0          1          0      )

 cart.    s(38) = (  1.0000000  0.0000000  0.0000000 )
                  (  0.0000000  0.0000000  1.0000000 )
                  (  0.0000000  1.0000000  0.0000000 )


      isym = 39     inv.  90 deg rotation - cart. axis [-1,0,0]  

 cryst.   s(39) = (    -1          0          0      )
                  (     0          0          1      )
                  (     0         -1          0      )

 cart.    s(39) = ( -1.0000000  0.0000000  0.0000000 )
                  (  0.0000000  0.0000000 -1.0000000 )
                  (  0.0000000  1.0000000  0.0000000 )


      isym = 40     inv.  90 deg rotation - cart. axis [1,0,0]   

 cryst.   s(40) = (    -1          0          0      )
                  (     0          0         -1      )
                  (     0          1          0      )

 cart.    s(40) = ( -1.0000000  0.0000000  0.0000000 )
                  (  0.0000000  0.0000000  1.0000000 )
                  (  0.0000000 -1.0000000  0.0000000 )


      isym = 41     inv. 120 deg rotation - cart. axis [-1,-1,-1]

 cryst.   s(41) = (     0          0         -1      )
                  (    -1          0          0      )
                  (     0         -1          0      )

 cart.    s(41) = (  0.0000000 -1.0000000  0.0000000 )
                  (  0.0000000  0.0000000 -1.0000000 )
                  ( -1.0000000  0.0000000  0.0000000 )


      isym = 42     inv. 120 deg rotation - cart. axis [-1,1,1]  

 cryst.   s(42) = (     0          0          1      )
                  (     1          0          0      )
                  (     0         -1          0      )

 cart.    s(42) = (  0.0000000  1.0000000  0.0000000 )
                  (  0.0000000  0.0000000 -1.0000000 )
                  (  1.0000000  0.0000000  0.0000000 )


      isym = 43     inv. 120 deg rotation - cart. axis [1,1,-1]  

 cryst.   s(43) = (     0          0          1      )
                  (    -1          0          0      )
                  (     0          1          0      )

 cart.    s(43) = (  0.0000000 -1.0000000  0.0000000 )
                  (  0.0000000  0.0000000  1.0000000 )
                  (  1.0000000  0.0000000  0.0000000 )


      isym = 44     inv. 120 deg rotation - cart. axis [1,-1,1]  

 cryst.   s(44) = (     0          0         -1      )
                  (     1          0          0      )
                  (     0          1          0      )

 cart.    s(44) = (  0.0000000  1.0000000  0.0000000 )
                  (  0.0000000  0.0000000  1.0000000 )
                  ( -1.0000000  0.0000000  0.0000000 )


      isym = 45     inv. 120 deg rotation - cart. axis [1,1,1]   

 cryst.   s(45) = (     0         -1          0      )
                  (     0          0         -1      )
                  (    -1          0          0      )

 cart.    s(45) = (  0.0000000  0.0000000 -1.0000000 )
                  ( -1.0000000  0.0000000  0.0000000 )
                  (  0.0000000 -1.0000000  0.0000000 )


      isym = 46     inv. 120 deg rotation - cart. axis [-1,1,-1] 

 cryst.   s(46) = (     0          1          0      )
                  (     0          0          1      )
                  (    -1          0          0      )

 cart.    s(46) = (  0.0000000  0.0000000 -1.0000000 )
                  (  1.0000000  0.0000000  0.0000000 )
                  (  0.0000000  1.0000000  0.0000000 )


      isym = 47     inv. 120 deg rotation - cart. axis [1,-1,-1] 

 cryst.   s(47) = (     0          1          0      )
                  (     0          0         -1      )
                  (     1          0          0      )

 cart.    s(47) = (  0.0000000  0.0000000  1.0000000 )
                  (  1.0000000  0.0000000  0.0000000 )
                  (  0.0000000 -1.0000000  0.0000000 )


      isym = 48     inv. 120 deg rotation - cart. axis [-1,-1,1] 

 cryst.   s(48) = (     0         -1          0      )
                  (     0          0          1      )
                  (     1          0          0      )

 cart.    s(48) = (  0.0000000  0.0000000  1.0000000 )
                  ( -1.0000000  0.0000000  0.0000000 )
                  (  0.0000000  1.0000000  0.0000000 )


     point group O_h (m-3m) 
     there are 10 classes
     the character table:

       E     8C3   3C2   6C4   6C2'  i     8S6   3s_h  6S4   6s_d 
A_1g   1.00  1.00  1.00  1.00  1.00  1.00  1.00  1.00  1.00  1.00
A_2g   1.00  1.00  1.00 -1.00 -1.00  1.00  1.00  1.00 -1.00 -1.00
E_g    2.00 -1.00  2.00  0.00  0.00  2.00 -1.00  2.00  0.00  0.00
T_1g   3.00  0.00 -1.00  1.00 -1.00  3.00  0.00 -1.00  1.00 -1.00
T_2g   3.00  0.00 -1.00 -1.00  1.00  3.00  0.00 -1.00 -1.00  1.00
A_1u   1.00  1.00  1.00  1.00  1.00 -1.00 -1.00 -1.00 -1.00 -1.00
A_2u   1.00  1.00  1.00 -1.00 -1.00 -1.00 -1.00 -1.00  1.00  1.00
E_u    2.00 -1.00  2.00  0.00  0.00 -2.00  1.00 -2.00  0.00  0.00
T_1u   3.00  0.00 -1.00  1.00 -1.00 -3.00  0.00  1.00 -1.00  1.00
T_2u   3.00  0.00 -1.00 -1.00  1.00 -3.00  0.00  1.00  1.00 -1.00

     the symmetry operations in each class and the name of the first element:

     E        1
          identity                                               
     8C3     17   19   20   18   24   21   22   23
          120 deg rotation - cart. axis [-1,-1,-1]               
     3C2      2    4    3
          180 deg rotation - cart. axis [0,0,1]                  
     6C4      7    8   15   16   12   11
           90 deg rotation - cart. axis [0,0,-1]                 
     6C2'     5    6   14   13   10    9
          180 deg rotation - cart. axis [1,1,0]                  
     i       25
          inversion                                              
     8S6     41   43   44   42   48   45   46   47
          inv. 120 deg rotation - cart. axis [-1,-1,-1]          
     3s_h    26   28   27
          inv. 180 deg rotation - cart. axis [0,0,1]             
     6S4     31   32   39   40   36   35
          inv.  90 deg rotation - cart. axis [0,0,-1]            
     6s_d    29   30   38   37   34   33
          inv. 180 deg rotation - cart. axis [1,1,0]             

   Cartesian axes

     site n.     atom                  positions (alat units)
         1           Ba  tau(   1) = (   0.5000000   0.5000000   0.5000000  )
         2           Sn  tau(   2) = (   0.0000000   0.0000000   0.0000000  )
         3           O   tau(   3) = (   0.0000000   0.5000000   0.0000000  )
         4           O   tau(   4) = (   0.0000000   0.0000000   0.5000000  )
         5           O   tau(   5) = (   0.5000000   0.0000000   0.0000000  )

   Crystallographic axes

     site n.     atom                  positions (cryst. coord.)
         1           Ba  tau(   1) = (  0.5000000  0.5000000  0.5000000  )
         2           Sn  tau(   2) = (  0.0000000  0.0000000  0.0000000  )
         3           O   tau(   3) = (  0.0000000  0.5000000  0.0000000  )
         4           O   tau(   4) = (  0.0000000  0.0000000  0.5000000  )
         5           O   tau(   5) = (  0.5000000  0.0000000  0.0000000  )

     number of k points=    56
                       cart. coord. in units 2pi/alat
        k(    1) = (   0.0000000   0.0000000   0.0000000), wk =   0.0020000
        k(    2) = (   0.0000000   0.0000000   0.1000000), wk =   0.0120000
        k(    3) = (   0.0000000   0.0000000   0.2000000), wk =   0.0120000
        k(    4) = (   0.0000000   0.0000000   0.3000000), wk =   0.0120000
        k(    5) = (   0.0000000   0.0000000   0.4000000), wk =   0.0120000
        k(    6) = (   0.0000000   0.0000000  -0.5000000), wk =   0.0060000
        k(    7) = (   0.0000000   0.1000000   0.1000000), wk =   0.0240000
        k(    8) = (   0.0000000   0.1000000   0.2000000), wk =   0.0480000
        k(    9) = (   0.0000000   0.1000000   0.3000000), wk =   0.0480000
        k(   10) = (   0.0000000   0.1000000   0.4000000), wk =   0.0480000
        k(   11) = (   0.0000000   0.1000000  -0.5000000), wk =   0.0240000
        k(   12) = (   0.0000000   0.2000000   0.2000000), wk =   0.0240000
        k(   13) = (   0.0000000   0.2000000   0.3000000), wk =   0.0480000
        k(   14) = (   0.0000000   0.2000000   0.4000000), wk =   0.0480000
        k(   15) = (   0.0000000   0.2000000  -0.5000000), wk =   0.0240000
        k(   16) = (   0.0000000   0.3000000   0.3000000), wk =   0.0240000
        k(   17) = (   0.0000000   0.3000000   0.4000000), wk =   0.0480000
        k(   18) = (   0.0000000   0.3000000  -0.5000000), wk =   0.0240000
        k(   19) = (   0.0000000   0.4000000   0.4000000), wk =   0.0240000
        k(   20) = (   0.0000000   0.4000000  -0.5000000), wk =   0.0240000
        k(   21) = (   0.0000000  -0.5000000  -0.5000000), wk =   0.0060000
        k(   22) = (   0.1000000   0.1000000   0.1000000), wk =   0.0160000
        k(   23) = (   0.1000000   0.1000000   0.2000000), wk =   0.0480000
        k(   24) = (   0.1000000   0.1000000   0.3000000), wk =   0.0480000
        k(   25) = (   0.1000000   0.1000000   0.4000000), wk =   0.0480000
        k(   26) = (   0.1000000   0.1000000  -0.5000000), wk =   0.0240000
        k(   27) = (   0.1000000   0.2000000   0.2000000), wk =   0.0480000
        k(   28) = (   0.1000000   0.2000000   0.3000000), wk =   0.0960000
        k(   29) = (   0.1000000   0.2000000   0.4000000), wk =   0.0960000
        k(   30) = (   0.1000000   0.2000000  -0.5000000), wk =   0.0480000
        k(   31) = (   0.1000000   0.3000000   0.3000000), wk =   0.0480000
        k(   32) = (   0.1000000   0.3000000   0.4000000), wk =   0.0960000
        k(   33) = (   0.1000000   0.3000000  -0.5000000), wk =   0.0480000
        k(   34) = (   0.1000000   0.4000000   0.4000000), wk =   0.0480000
        k(   35) = (   0.1000000   0.4000000  -0.5000000), wk =   0.0480000
        k(   36) = (   0.1000000  -0.5000000  -0.5000000), wk =   0.0120000
        k(   37) = (   0.2000000   0.2000000   0.2000000), wk =   0.0160000
        k(   38) = (   0.2000000   0.2000000   0.3000000), wk =   0.0480000
        k(   39) = (   0.2000000   0.2000000   0.4000000), wk =   0.0480000
        k(   40) = (   0.2000000   0.2000000  -0.5000000), wk =   0.0240000
        k(   41) = (   0.2000000   0.3000000   0.3000000), wk =   0.0480000
        k(   42) = (   0.2000000   0.3000000   0.4000000), wk =   0.0960000
        k(   43) = (   0.2000000   0.3000000  -0.5000000), wk =   0.0480000
        k(   44) = (   0.2000000   0.4000000   0.4000000), wk =   0.0480000
        k(   45) = (   0.2000000   0.4000000  -0.5000000), wk =   0.0480000
        k(   46) = (   0.2000000  -0.5000000  -0.5000000), wk =   0.0120000
        k(   47) = (   0.3000000   0.3000000   0.3000000), wk =   0.0160000
        k(   48) = (   0.3000000   0.3000000   0.4000000), wk =   0.0480000
        k(   49) = (   0.3000000   0.3000000  -0.5000000), wk =   0.0240000
        k(   50) = (   0.3000000   0.4000000   0.4000000), wk =   0.0480000
        k(   51) = (   0.3000000   0.4000000  -0.5000000), wk =   0.0480000
        k(   52) = (   0.3000000  -0.5000000  -0.5000000), wk =   0.0120000
        k(   53) = (   0.4000000   0.4000000   0.4000000), wk =   0.0160000
        k(   54) = (   0.4000000   0.4000000  -0.5000000), wk =   0.0240000
        k(   55) = (   0.4000000  -0.5000000  -0.5000000), wk =   0.0120000
        k(   56) = (  -0.5000000  -0.5000000  -0.5000000), wk =   0.0020000

                       cryst. coord.
        k(    1) = (   0.0000000   0.0000000   0.0000000), wk =   0.0020000
        k(    2) = (   0.0000000   0.0000000   0.1000000), wk =   0.0120000
        k(    3) = (   0.0000000   0.0000000   0.2000000), wk =   0.0120000
        k(    4) = (   0.0000000   0.0000000   0.3000000), wk =   0.0120000
        k(    5) = (   0.0000000   0.0000000   0.4000000), wk =   0.0120000
        k(    6) = (   0.0000000   0.0000000  -0.5000000), wk =   0.0060000
        k(    7) = (   0.0000000   0.1000000   0.1000000), wk =   0.0240000
        k(    8) = (   0.0000000   0.1000000   0.2000000), wk =   0.0480000
        k(    9) = (   0.0000000   0.1000000   0.3000000), wk =   0.0480000
        k(   10) = (   0.0000000   0.1000000   0.4000000), wk =   0.0480000
        k(   11) = (   0.0000000   0.1000000  -0.5000000), wk =   0.0240000
        k(   12) = (   0.0000000   0.2000000   0.2000000), wk =   0.0240000
        k(   13) = (   0.0000000   0.2000000   0.3000000), wk =   0.0480000
        k(   14) = (   0.0000000   0.2000000   0.4000000), wk =   0.0480000
        k(   15) = (   0.0000000   0.2000000  -0.5000000), wk =   0.0240000
        k(   16) = (   0.0000000   0.3000000   0.3000000), wk =   0.0240000
        k(   17) = (   0.0000000   0.3000000   0.4000000), wk =   0.0480000
        k(   18) = (   0.0000000   0.3000000  -0.5000000), wk =   0.0240000
        k(   19) = (   0.0000000   0.4000000   0.4000000), wk =   0.0240000
        k(   20) = (   0.0000000   0.4000000  -0.5000000), wk =   0.0240000
        k(   21) = (   0.0000000  -0.5000000  -0.5000000), wk =   0.0060000
        k(   22) = (   0.1000000   0.1000000   0.1000000), wk =   0.0160000
        k(   23) = (   0.1000000   0.1000000   0.2000000), wk =   0.0480000
        k(   24) = (   0.1000000   0.1000000   0.3000000), wk =   0.0480000
        k(   25) = (   0.1000000   0.1000000   0.4000000), wk =   0.0480000
        k(   26) = (   0.1000000   0.1000000  -0.5000000), wk =   0.0240000
        k(   27) = (   0.1000000   0.2000000   0.2000000), wk =   0.0480000
        k(   28) = (   0.1000000   0.2000000   0.3000000), wk =   0.0960000
        k(   29) = (   0.1000000   0.2000000   0.4000000), wk =   0.0960000
        k(   30) = (   0.1000000   0.2000000  -0.5000000), wk =   0.0480000
        k(   31) = (   0.1000000   0.3000000   0.3000000), wk =   0.0480000
        k(   32) = (   0.1000000   0.3000000   0.4000000), wk =   0.0960000
        k(   33) = (   0.1000000   0.3000000  -0.5000000), wk =   0.0480000
        k(   34) = (   0.1000000   0.4000000   0.4000000), wk =   0.0480000
        k(   35) = (   0.1000000   0.4000000  -0.5000000), wk =   0.0480000
        k(   36) = (   0.1000000  -0.5000000  -0.5000000), wk =   0.0120000
        k(   37) = (   0.2000000   0.2000000   0.2000000), wk =   0.0160000
        k(   38) = (   0.2000000   0.2000000   0.3000000), wk =   0.0480000
        k(   39) = (   0.2000000   0.2000000   0.4000000), wk =   0.0480000
        k(   40) = (   0.2000000   0.2000000  -0.5000000), wk =   0.0240000
        k(   41) = (   0.2000000   0.3000000   0.3000000), wk =   0.0480000
        k(   42) = (   0.2000000   0.3000000   0.4000000), wk =   0.0960000
        k(   43) = (   0.2000000   0.3000000  -0.5000000), wk =   0.0480000
        k(   44) = (   0.2000000   0.4000000   0.4000000), wk =   0.0480000
        k(   45) = (   0.2000000   0.4000000  -0.5000000), wk =   0.0480000
        k(   46) = (   0.2000000  -0.5000000  -0.5000000), wk =   0.0120000
        k(   47) = (   0.3000000   0.3000000   0.3000000), wk =   0.0160000
        k(   48) = (   0.3000000   0.3000000   0.4000000), wk =   0.0480000
        k(   49) = (   0.3000000   0.3000000  -0.5000000), wk =   0.0240000
        k(   50) = (   0.3000000   0.4000000   0.4000000), wk =   0.0480000
        k(   51) = (   0.3000000   0.4000000  -0.5000000), wk =   0.0480000
        k(   52) = (   0.3000000  -0.5000000  -0.5000000), wk =   0.0120000
        k(   53) = (   0.4000000   0.4000000   0.4000000), wk =   0.0160000
        k(   54) = (   0.4000000   0.4000000  -0.5000000), wk =   0.0240000
        k(   55) = (   0.4000000  -0.5000000  -0.5000000), wk =   0.0120000
        k(   56) = (  -0.5000000  -0.5000000  -0.5000000), wk =   0.0020000

     Dense  grid:    88423 G-vectors     FFT dimensions: (  60,  60,  60)

     Dynamical RAM for                 wfc:       0.22 MB

     Dynamical RAM for     wfc (w. buffer):       1.77 MB

     Dynamical RAM for           str. fact:       0.25 MB

     Dynamical RAM for           local pot:       0.00 MB

     Dynamical RAM for          nlocal pot:       0.64 MB

     Dynamical RAM for                qrad:       7.03 MB

     Dynamical RAM for          rho,v,vnew:       0.58 MB

     Dynamical RAM for               rhoin:       0.19 MB

     Dynamical RAM for            rho*nmix:       1.35 MB

     Dynamical RAM for           G-vectors:       0.36 MB

     Dynamical RAM for          h,s,v(r/c):       0.08 MB

     Dynamical RAM for          <psi|beta>:       0.02 MB

     Dynamical RAM for                 psi:       0.44 MB

     Dynamical RAM for                hpsi:       0.44 MB

     Dynamical RAM for                spsi:       0.44 MB

     Dynamical RAM for      wfcinit/wfcrot:       0.56 MB

     Dynamical RAM for           addusdens:       2.27 MB

     Dynamical RAM for          addusforce:       2.29 MB

     Dynamical RAM for         addusstress:       2.36 MB

     Estimated static dynamical RAM per process >      11.72 MB

     Estimated max dynamical RAM per process >      15.43 MB

     Estimated total dynamical RAM >       1.78 GB

     Initial potential from superposition of free atoms

     starting charge      40.9829, renormalised to      42.0000


     %%%%%%%%%%%%%%%%%%%%%%%%%%%%%%%%%%%%%%%%%%%%%%%%%%%%%%%%%%%%%%%%%%%%%%%%
     %                                                                      %
     % You are using vdW-DF, which was implemented by the Thonhauser group. %
     % Please cite the following two papers that made this development      %
     % possible and the two reviews that describe the various versions:     %
     %                                                                      %
     %   T. Thonhauser et al., PRL 115, 136402 (2015).                      %
     %   T. Thonhauser et al., PRB 76, 125112 (2007).                       %
     %   K. Berland et al., Rep. Prog. Phys. 78, 066501 (2015).             %
     %   D.C. Langreth et al., J. Phys.: Condens. Matter 21, 084203 (2009). %
     %                                                                      %
     % If you are calculating stress with vdW-DF, please also cite:         %
     %                                                                      %
     %   R. Sabatini et al., J. Phys.: Condens. Matter 24, 424209 (2012).   %
     %                                                                      %
     %%%%%%%%%%%%%%%%%%%%%%%%%%%%%%%%%%%%%%%%%%%%%%%%%%%%%%%%%%%%%%%%%%%%%%%%

     %%%%%%%%%%%%%%%%%%%%%%%%%%%%%%%%%%%%%%%%%%%%%%%%%%%%%%%%%%%%%%%%%%%%%%%%
     %                                                                      %
     %  vdW-DF NEWS:                                                        %
     %                                                                      %
     %  * vdW-DF3 is now available. DOI: 10.1021/acs.jctc.0c00471           %
     %    use with input_dft = 'vdW-DF3-opt1' or 'vdW-DF3-opt2'             %
     %                                                                      %
     %  * Unscreened and range-separated vdW-DF hybrid functionals          %
     %    DOI: 10.1063/1.4986522 and 10.1088/1361-648X/ac2ad2               %
     %    use with input_dft = 'vdW-DF-cx0' (etc) and 'vdW-DF-ahcx'         %
     %                                                                      %
     %%%%%%%%%%%%%%%%%%%%%%%%%%%%%%%%%%%%%%%%%%%%%%%%%%%%%%%%%%%%%%%%%%%%%%%%


     Carrying out vdW-DF run using the following parameters:
     Nqs    =  20  Npoints =  1024  r_max =  100.000
     q_mesh =  0.00001000  0.04494208  0.09755937  0.15916263
               0.23128650  0.31572767  0.41458969  0.53033537
               0.66584808  0.82450364  1.01025438  1.22772762
               1.48234092  1.78043706  2.12944203  2.53805004
               3.01644009  3.57652955  4.23227104  5.00000000


     -----------------------------------------------
     Non-local corr. energy    =       0.84391956 Ry
     -----------------------------------------------

     Starting wfcs are   26 randomized atomic wfcs
     Checking if some PAW data can be deallocated... 
       PAW data deallocated on  102 nodes for type:  1
       PAW data deallocated on   52 nodes for type:  3

     total cpu time spent up to now is        1.3 secs

     Self-consistent Calculation

     iteration #  1     ecut=   120.00 Ry     beta= 0.70
     Davidson diagonalization with overlap

---- Real-time Memory Report at c_bands before calling an iterative solver
           149 MiB given to the printing process from OS
             0 MiB allocation reported by mallinfo(arena+hblkhd)
       1938299 MiB available memory on the node where the printing process lives
------------------
     ethr =  1.00E-02,  avg # of iterations =  2.0


     -----------------------------------------------
     Non-local corr. energy    =       0.88392208 Ry
     -----------------------------------------------


     total cpu time spent up to now is        1.7 secs

     total energy              =    -741.78198105 Ry
     estimated scf accuracy    <       1.46124400 Ry

     iteration #  2     ecut=   120.00 Ry     beta= 0.70
     Davidson diagonalization with overlap

---- Real-time Memory Report at c_bands before calling an iterative solver
           161 MiB given to the printing process from OS
             0 MiB allocation reported by mallinfo(arena+hblkhd)
       1938034 MiB available memory on the node where the printing process lives
------------------
     ethr =  3.48E-03,  avg # of iterations =  5.1


     -----------------------------------------------
     Non-local corr. energy    =       0.86059730 Ry
     -----------------------------------------------


     total cpu time spent up to now is        2.3 secs

     total energy              =    -742.12603345 Ry
     estimated scf accuracy    <       2.23048936 Ry

     iteration #  3     ecut=   120.00 Ry     beta= 0.70
     Davidson diagonalization with overlap

---- Real-time Memory Report at c_bands before calling an iterative solver
           164 MiB given to the printing process from OS
             0 MiB allocation reported by mallinfo(arena+hblkhd)
       1937901 MiB available memory on the node where the printing process lives
------------------
     ethr =  3.48E-03,  avg # of iterations =  3.5


     -----------------------------------------------
     Non-local corr. energy    =       0.86532623 Ry
     -----------------------------------------------


     total cpu time spent up to now is        2.7 secs

     total energy              =    -742.54696339 Ry
     estimated scf accuracy    <       0.01024496 Ry

     iteration #  4     ecut=   120.00 Ry     beta= 0.70
     Davidson diagonalization with overlap

---- Real-time Memory Report at c_bands before calling an iterative solver
           164 MiB given to the printing process from OS
             0 MiB allocation reported by mallinfo(arena+hblkhd)
       1937829 MiB available memory on the node where the printing process lives
------------------
     ethr =  2.44E-05,  avg # of iterations =  5.5


     -----------------------------------------------
     Non-local corr. energy    =       0.86867054 Ry
     -----------------------------------------------


     total cpu time spent up to now is        3.3 secs

     total energy              =    -742.56019931 Ry
     estimated scf accuracy    <       0.00789377 Ry

     iteration #  5     ecut=   120.00 Ry     beta= 0.70
     Davidson diagonalization with overlap

---- Real-time Memory Report at c_bands before calling an iterative solver
           165 MiB given to the printing process from OS
             0 MiB allocation reported by mallinfo(arena+hblkhd)
       1937817 MiB available memory on the node where the printing process lives
------------------
     ethr =  1.88E-05,  avg # of iterations =  3.1


     -----------------------------------------------
     Non-local corr. energy    =       0.86904935 Ry
     -----------------------------------------------


     total cpu time spent up to now is        3.7 secs

     total energy              =    -742.56168781 Ry
     estimated scf accuracy    <       0.00006866 Ry

     iteration #  6     ecut=   120.00 Ry     beta= 0.70
     Davidson diagonalization with overlap

---- Real-time Memory Report at c_bands before calling an iterative solver
           165 MiB given to the printing process from OS
             0 MiB allocation reported by mallinfo(arena+hblkhd)
       1937820 MiB available memory on the node where the printing process lives
------------------
     ethr =  1.63E-07,  avg # of iterations =  5.4


     -----------------------------------------------
     Non-local corr. energy    =       0.86889107 Ry
     -----------------------------------------------


     total cpu time spent up to now is        4.3 secs

     total energy              =    -742.56176939 Ry
     estimated scf accuracy    <       0.00016724 Ry

     iteration #  7     ecut=   120.00 Ry     beta= 0.70
     Davidson diagonalization with overlap

---- Real-time Memory Report at c_bands before calling an iterative solver
           165 MiB given to the printing process from OS
             0 MiB allocation reported by mallinfo(arena+hblkhd)
       1937822 MiB available memory on the node where the printing process lives
------------------
     ethr =  1.63E-07,  avg # of iterations =  4.1


     -----------------------------------------------
     Non-local corr. energy    =       0.86892981 Ry
     -----------------------------------------------


     total cpu time spent up to now is        4.7 secs

     total energy              =    -742.56180303 Ry
     estimated scf accuracy    <       0.00000013 Ry

     iteration #  8     ecut=   120.00 Ry     beta= 0.70
     Davidson diagonalization with overlap

---- Real-time Memory Report at c_bands before calling an iterative solver
           165 MiB given to the printing process from OS
             0 MiB allocation reported by mallinfo(arena+hblkhd)
       1937806 MiB available memory on the node where the printing process lives
------------------
     ethr =  3.18E-10,  avg # of iterations =  5.6


     -----------------------------------------------
     Non-local corr. energy    =       0.86894693 Ry
     -----------------------------------------------


     total cpu time spent up to now is        5.3 secs

     total energy              =    -742.56180355 Ry
     estimated scf accuracy    <       0.00000002 Ry

     iteration #  9     ecut=   120.00 Ry     beta= 0.70
     Davidson diagonalization with overlap

---- Real-time Memory Report at c_bands before calling an iterative solver
           165 MiB given to the printing process from OS
             0 MiB allocation reported by mallinfo(arena+hblkhd)
       1937758 MiB available memory on the node where the printing process lives
------------------
     ethr =  5.72E-11,  avg # of iterations =  3.5


     -----------------------------------------------
     Non-local corr. energy    =       0.86894631 Ry
     -----------------------------------------------


     total cpu time spent up to now is        5.8 secs

     total energy              =    -742.56180356 Ry
     estimated scf accuracy    <       0.00000001 Ry

     iteration # 10     ecut=   120.00 Ry     beta= 0.70
     Davidson diagonalization with overlap

---- Real-time Memory Report at c_bands before calling an iterative solver
           165 MiB given to the printing process from OS
             0 MiB allocation reported by mallinfo(arena+hblkhd)
       1937657 MiB available memory on the node where the printing process lives
------------------
     ethr =  3.43E-11,  avg # of iterations =  2.4


     -----------------------------------------------
     Non-local corr. energy    =       0.86894396 Ry
     -----------------------------------------------


     total cpu time spent up to now is        6.2 secs

     End of self-consistent calculation

          k = 0.0000 0.0000 0.0000 ( 11067 PWs)   bands (ev):

   -15.8966 -11.7040 -11.7040 -11.1440 -11.1440 -11.1440  -8.1762  -5.7569
    -5.7569  -1.0528  -1.0528  -1.0528   5.0422   5.0422   5.0422   8.4053
     8.4053   8.4053   8.8452   8.8452   8.8452

     occupation numbers 
     1.0000   1.0000   1.0000   1.0000   1.0000   1.0000   1.0000   1.0000
     1.0000   1.0000   1.0000   1.0000   1.0000   1.0000   1.0000   1.0000
     1.0000   1.0000   1.0000   1.0000   1.0000

          k = 0.0000 0.0000 0.1000 ( 11039 PWs)   bands (ev):

   -15.8913 -11.7038 -11.6830 -11.1452 -11.1452 -11.1439  -8.1607  -5.8627
    -5.7551  -1.0390  -1.0390  -1.0240   4.9953   5.0376   5.0376   8.3386
     8.3742   8.3742   8.5079   8.8143   8.8143

     occupation numbers 
     1.0000   1.0000   1.0000   1.0000   1.0000   1.0000   1.0000   1.0000
     1.0000   1.0000   1.0000   1.0000   1.0000   1.0000   1.0000   1.0000
     1.0000   1.0000   1.0000   1.0000   1.0000

          k = 0.0000 0.0000 0.2000 ( 11072 PWs)   bands (ev):

   -15.8774 -11.7033 -11.6272 -11.1483 -11.1483 -11.1438  -8.1071  -6.1472
    -5.7504  -1.0026  -1.0026  -0.9557   4.8936   5.0223   5.0223   8.0411
     8.1742   8.3054   8.3054   8.7292   8.7292

     occupation numbers 
     1.0000   1.0000   1.0000   1.0000   1.0000   1.0000   1.0000   1.0000
     1.0000   1.0000   1.0000   1.0000   1.0000   1.0000   1.0000   1.0000
     1.0000   1.0000   1.0000   1.0000   1.0000

          k = 0.0000 0.0000 0.3000 ( 11048 PWs)   bands (ev):

   -15.8601 -11.7026 -11.5567 -11.1521 -11.1521 -11.1437  -8.0003  -6.5302
    -5.7446  -0.9566  -0.9566  -0.8832   4.8038   4.9964   4.9964   7.6478
     7.9884   8.2525   8.2525   8.6084   8.6084

     occupation numbers 
     1.0000   1.0000   1.0000   1.0000   1.0000   1.0000   1.0000   1.0000
     1.0000   1.0000   1.0000   1.0000   1.0000   1.0000   1.0000   1.0000
     1.0000   1.0000   1.0000   1.0000   1.0000

          k = 0.0000 0.0000 0.4000 ( 11064 PWs)   bands (ev):

   -15.8460 -11.7021 -11.4985 -11.1553 -11.1553 -11.1436  -7.8385  -6.9094
    -5.7399  -0.9184  -0.9184  -0.8328   4.7559   4.9693   4.9693   7.3798
     7.8495   8.2552   8.2552   8.4777   8.4777

     occupation numbers 
     1.0000   1.0000   1.0000   1.0000   1.0000   1.0000   1.0000   1.0000
     1.0000   1.0000   1.0000   1.0000   1.0000   1.0000   1.0000   1.0000
     1.0000   1.0000   1.0000   1.0000   1.0000

          k = 0.0000 0.0000-0.5000 ( 11052 PWs)   bands (ev):

   -15.8406 -11.7018 -11.4759 -11.1564 -11.1564 -11.1435  -7.7225  -7.1071
    -5.7381  -0.9037  -0.9037  -0.8152   4.7429   4.9576   4.9576   7.2835
     7.7987   8.2904   8.2904   8.3964   8.3964

     occupation numbers 
     1.0000   1.0000   1.0000   1.0000   1.0000   1.0000   1.0000   1.0000
     1.0000   1.0000   1.0000   1.0000   1.0000   1.0000   1.0000   1.0000
     1.0000   1.0000   1.0000   1.0000   1.0000

          k = 0.0000 0.1000 0.1000 ( 11055 PWs)   bands (ev):

   -15.8861 -11.6933 -11.6720 -11.1463 -11.1452 -11.1450  -8.1447  -5.9115
    -5.8075  -1.0430  -1.0258  -0.9859   4.7021   5.0366   5.3037   8.2187
     8.2604   8.3415   8.4132   8.7815   8.8656

     occupation numbers 
     1.0000   1.0000   1.0000   1.0000   1.0000   1.0000   1.0000   1.0000
     1.0000   1.0000   1.0000   1.0000   1.0000   1.0000   1.0000   1.0000
     1.0000   1.0000   1.0000   1.0000   1.0000

          k = 0.0000 0.1000 0.2000 ( 11058 PWs)   bands (ev):

   -15.8726 -11.6888 -11.6194 -11.1493 -11.1482 -11.1450  -8.0902  -6.1692
    -5.8227  -1.0223  -0.9907  -0.9234   4.4225   5.0309   5.5200   7.8730
     8.0540   8.2686   8.3880   8.6916   8.8302

     occupation numbers 
     1.0000   1.0000   1.0000   1.0000   1.0000   1.0000   1.0000   1.0000
     1.0000   1.0000   1.0000   1.0000   1.0000   1.0000   1.0000   1.0000
     1.0000   1.0000   1.0000   1.0000   1.0000

          k = 0.0000 0.1000 0.3000 ( 11060 PWs)   bands (ev):

   -15.8557 -11.6875 -11.5486 -11.1530 -11.1521 -11.1448  -7.9822  -6.5434
    -5.8185  -0.9835  -0.9464  -0.8708   4.2212   5.0172   5.6539   7.5377
     7.9101   8.2105   8.3333   8.5643   8.7224

     occupation numbers 
     1.0000   1.0000   1.0000   1.0000   1.0000   1.0000   1.0000   1.0000
     1.0000   1.0000   1.0000   1.0000   1.0000   1.0000   1.0000   1.0000
     1.0000   1.0000   1.0000   1.0000   1.0000

          k = 0.0000 0.1000 0.4000 ( 11065 PWs)   bands (ev):

   -15.8420 -11.6868 -11.4896 -11.1560 -11.1552 -11.1447  -7.8183  -6.9191
    -5.8134  -0.9422  -0.9097  -0.8460   4.1090   5.0004   5.7172   7.3106
     7.8205   8.2106   8.3140   8.4265   8.5947

     occupation numbers 
     1.0000   1.0000   1.0000   1.0000   1.0000   1.0000   1.0000   1.0000
     1.0000   1.0000   1.0000   1.0000   1.0000   1.0000   1.0000   1.0000
     1.0000   1.0000   1.0000   1.0000   1.0000

          k = 0.0000 0.1000-0.5000 ( 11044 PWs)   bands (ev):

   -15.8367 -11.6865 -11.4668 -11.1571 -11.1563 -11.1447  -7.6989  -7.1184
    -5.8113  -0.9223  -0.8955  -0.8424   4.0744   4.9925   5.7341   7.2299
     7.7901   8.2507   8.3288   8.3366   8.5238

     occupation numbers 
     1.0000   1.0000   1.0000   1.0000   1.0000   1.0000   1.0000   1.0000
     1.0000   1.0000   1.0000   1.0000   1.0000   1.0000   1.0000   1.0000
     1.0000   1.0000   1.0000   1.0000   1.0000

          k = 0.0000 0.2000 0.2000 ( 11049 PWs)   bands (ev):

   -15.8600 -11.6659 -11.5833 -11.1520 -11.1482 -11.1479  -8.0336  -6.2964
    -5.9521  -1.0342  -0.9592  -0.8842   3.9905   5.0515   6.0164   7.5724
     7.9040   8.1830   8.4518   8.5894   8.9289

     occupation numbers 
     1.0000   1.0000   1.0000   1.0000   1.0000   1.0000   1.0000   1.0000
     1.0000   1.0000   1.0000   1.0000   1.0000   1.0000   1.0000   1.0000
     1.0000   1.0000   1.0000   1.0000   1.0000

          k = 0.0000 0.2000 0.3000 ( 11057 PWs)   bands (ev):

   -15.8442 -11.6561 -11.5181 -11.1552 -11.1518 -11.1478  -7.9235  -6.5976
    -6.0032  -1.0235  -0.9194  -0.8714   3.6905   5.0723   6.3782   7.3034
     7.8289   8.1073   8.4466   8.4545   8.9138

     occupation numbers 
     1.0000   1.0000   1.0000   1.0000   1.0000   1.0000   1.0000   1.0000
     1.0000   1.0000   1.0000   1.0000   1.0000   1.0000   1.0000   1.0000
     1.0000   1.0000   1.0000   1.0000   1.0000

          k = 0.0000 0.2000 0.4000 ( 11073 PWs)   bands (ev):

   -15.8314 -11.6527 -11.4592 -11.1579 -11.1549 -11.1477  -7.7558  -6.9479
    -6.0133  -0.9942  -0.8894  -0.8866   3.5226   5.0847   6.5700   7.1225
     7.8504   8.0939   8.2940   8.4324   8.8292

     occupation numbers 
     1.0000   1.0000   1.0000   1.0000   1.0000   1.0000   1.0000   1.0000
     1.0000   1.0000   1.0000   1.0000   1.0000   1.0000   1.0000   1.0000
     1.0000   1.0000   1.0000   1.0000   1.0000

          k = 0.0000 0.2000-0.5000 ( 11044 PWs)   bands (ev):

   -15.8265 -11.6517 -11.4359 -11.1589 -11.1560 -11.1476  -7.6269  -7.1484
    -6.0146  -0.9693  -0.9116  -0.8739   3.4698   5.0882   6.6237   7.0587
     7.8817   8.1421   8.1849   8.4253   8.7758

     occupation numbers 
     1.0000   1.0000   1.0000   1.0000   1.0000   1.0000   1.0000   1.0000
     1.0000   1.0000   1.0000   1.0000   1.0000   1.0000   1.0000   1.0000
     1.0000   1.0000   1.0000   1.0000   1.0000

          k = 0.0000 0.3000 0.3000 ( 11066 PWs)   bands (ev):

   -15.8299 -11.6333 -11.4619 -11.1580 -11.1517 -11.1514  -7.8131  -6.7448
    -6.1880  -1.0470  -0.9033  -0.8855   3.3212   5.1408   6.9736   7.0737
     7.8307   8.0018   8.2873   8.5327   9.0281

     occupation numbers 
     1.0000   1.0000   1.0000   1.0000   1.0000   1.0000   1.0000   1.0000
     1.0000   1.0000   1.0000   1.0000   1.0000   1.0000   1.0000   1.0000
     1.0000   1.0000   1.0000   1.0000   1.0000

          k = 0.0000 0.3000 0.4000 ( 11053 PWs)   bands (ev):

   -15.8182 -11.6232 -11.4059 -11.1602 -11.1545 -11.1513  -7.6457  -6.9995
    -6.2796  -1.0438  -0.9546  -0.8576   3.1099   5.1961   6.9142   7.3211
     7.9479   7.9563   8.1245   8.5444   9.0417

     occupation numbers 
     1.0000   1.0000   1.0000   1.0000   1.0000   1.0000   1.0000   1.0000
     1.0000   1.0000   1.0000   1.0000   1.0000   1.0000   1.0000   1.0000
     1.0000   1.0000   1.0000   1.0000   1.0000

          k = 0.0000 0.3000-0.5000 ( 11050 PWs)   bands (ev):

   -15.8138 -11.6205 -11.3828 -11.1610 -11.1557 -11.1512  -7.5051  -7.1857
    -6.3023  -1.0240  -0.9936  -0.8468   3.0419   5.2172   6.8574   7.4144
     7.9967   8.0058   8.0489   8.5283   9.0261

     occupation numbers 
     1.0000   1.0000   1.0000   1.0000   1.0000   1.0000   1.0000   1.0000
     1.0000   1.0000   1.0000   1.0000   1.0000   1.0000   1.0000   1.0000
     1.0000   1.0000   1.0000   1.0000   1.0000

          k = 0.0000 0.4000 0.4000 ( 11054 PWs)   bands (ev):

   -15.8075 -11.6078 -11.3516 -11.1620 -11.1543 -11.1542  -7.4871  -7.0952
    -6.5126  -1.0699  -1.0189  -0.8338   2.8690   5.2933   6.7644   7.8447
     7.8652   7.9657   8.0712   8.5876   9.1697

     occupation numbers 
     1.0000   1.0000   1.0000   1.0000   1.0000   1.0000   1.0000   1.0000
     1.0000   1.0000   1.0000   1.0000   1.0000   1.0000   1.0000   1.0000
     1.0000   1.0000   1.0000   1.0000   1.0000

          k = 0.0000 0.4000-0.5000 ( 11054 PWs)   bands (ev):

   -15.8034 -11.6034 -11.3288 -11.1627 -11.1554 -11.1541  -7.3417  -7.2162
    -6.6026  -1.0656  -1.0572  -0.8246   2.7903   5.3324   6.7107   7.8669
     7.8677   7.9943   8.1912   8.5699   9.2082

     occupation numbers 
     1.0000   1.0000   1.0000   1.0000   1.0000   1.0000   1.0000   1.0000
     1.0000   1.0000   1.0000   1.0000   1.0000   1.0000   1.0000   1.0000
     1.0000   1.0000   1.0000   1.0000   1.0000

          k = 0.0000-0.5000-0.5000 ( 11016 PWs)   bands (ev):

   -15.7995 -11.5983 -11.3059 -11.1633 -11.1553 -11.1553  -7.2279  -7.2279
    -6.7695  -1.0809  -1.0809  -0.8160   2.7076   5.3797   6.6579   7.8151
     7.8151   8.2457   8.2457   8.5404   9.2750

     occupation numbers 
     1.0000   1.0000   1.0000   1.0000   1.0000   1.0000   1.0000   1.0000
     1.0000   1.0000   1.0000   1.0000   1.0000   1.0000   1.0000   1.0000
     1.0000   1.0000   1.0000   1.0000   1.0000

          k = 0.1000 0.1000 0.1000 ( 11068 PWs)   bands (ev):

   -15.8811 -11.6718 -11.6718 -11.1463 -11.1463 -11.1463  -8.1284  -5.9086
    -5.9086  -1.0346  -1.0346  -0.9467   4.4314   5.3018   5.3018   8.0641
     8.1976   8.1976   8.4864   8.8365   8.8365

     occupation numbers 
     1.0000   1.0000   1.0000   1.0000   1.0000   1.0000   1.0000   1.0000
     1.0000   1.0000   1.0000   1.0000   1.0000   1.0000   1.0000   1.0000
     1.0000   1.0000   1.0000   1.0000   1.0000

          k = 0.1000 0.1000 0.2000 ( 11050 PWs)   bands (ev):

   -15.8679 -11.6712 -11.6146 -11.1494 -11.1491 -11.1461  -8.0732  -6.1817
    -5.9009  -1.0217  -1.0126  -0.8861   4.1013   5.2940   5.6206   7.7340
     8.0114   8.1453   8.4941   8.7620   8.8224

     occupation numbers 
     1.0000   1.0000   1.0000   1.0000   1.0000   1.0000   1.0000   1.0000
     1.0000   1.0000   1.0000   1.0000   1.0000   1.0000   1.0000   1.0000
     1.0000   1.0000   1.0000   1.0000   1.0000

          k = 0.1000 0.1000 0.3000 ( 11075 PWs)   bands (ev):

   -15.8514 -11.6705 -11.5422 -11.1533 -11.1526 -11.1460  -7.9643  -6.5531
    -5.8914  -0.9850  -0.9826  -0.8455   3.8620   5.2784   5.8474   7.4500
     7.8635   8.1111   8.4395   8.6697   8.7015

     occupation numbers 
     1.0000   1.0000   1.0000   1.0000   1.0000   1.0000   1.0000   1.0000
     1.0000   1.0000   1.0000   1.0000   1.0000   1.0000   1.0000   1.0000
     1.0000   1.0000   1.0000   1.0000   1.0000

          k = 0.1000 0.1000 0.4000 ( 11064 PWs)   bands (ev):

   -15.8380 -11.6700 -11.4822 -11.1565 -11.1554 -11.1458  -7.7988  -6.9266
    -5.8836  -0.9624  -0.9289  -0.8427   3.7277   5.2609   5.9675   7.2656
     7.7761   8.1496   8.3849   8.5284   8.5873

     occupation numbers 
     1.0000   1.0000   1.0000   1.0000   1.0000   1.0000   1.0000   1.0000
     1.0000   1.0000   1.0000   1.0000   1.0000   1.0000   1.0000   1.0000
     1.0000   1.0000   1.0000   1.0000   1.0000

          k = 0.1000 0.1000-0.5000 ( 11034 PWs)   bands (ev):

   -15.8329 -11.6698 -11.4590 -11.1577 -11.1565 -11.1458  -7.6761  -7.1278
    -5.8807  -0.9537  -0.8820  -0.8698   3.6858   5.2530   6.0019   7.2018
     7.7481   8.2207   8.3665   8.4077   8.5515

     occupation numbers 
     1.0000   1.0000   1.0000   1.0000   1.0000   1.0000   1.0000   1.0000
     1.0000   1.0000   1.0000   1.0000   1.0000   1.0000   1.0000   1.0000
     1.0000   1.0000   1.0000   1.0000   1.0000

          k = 0.1000 0.2000 0.2000 ( 11059 PWs)   bands (ev):

   -15.8555 -11.6432 -11.5831 -11.1520 -11.1491 -11.1491  -8.0164  -6.2911
    -6.0389  -1.0384  -1.0040  -0.8413   3.6808   5.4200   6.0218   7.4777
     7.8895   8.0502   8.5713   8.6954   8.9036

     occupation numbers 
     1.0000   1.0000   1.0000   1.0000   1.0000   1.0000   1.0000   1.0000
     1.0000   1.0000   1.0000   1.0000   1.0000   1.0000   1.0000   1.0000
     1.0000   1.0000   1.0000   1.0000   1.0000

          k = 0.1000 0.2000 0.3000 ( 11060 PWs)   bands (ev):

   -15.8401 -11.6344 -11.5161 -11.1554 -11.1527 -11.1490  -7.9063  -6.5975
    -6.0743  -1.0343  -0.9858  -0.8281   3.3735   5.4514   6.4131   7.2608
     7.7958   8.0066   8.5444   8.5986   8.8918

     occupation numbers 
     1.0000   1.0000   1.0000   1.0000   1.0000   1.0000   1.0000   1.0000
     1.0000   1.0000   1.0000   1.0000   1.0000   1.0000   1.0000   1.0000
     1.0000   1.0000   1.0000   1.0000   1.0000

          k = 0.1000 0.2000 0.4000 ( 11063 PWs)   bands (ev):

   -15.8276 -11.6318 -11.4555 -11.1583 -11.1555 -11.1488  -7.7381  -6.9496
    -6.0753  -1.0166  -0.9611  -0.8494   3.1981   5.4632   6.6393   7.1268
     7.7741   8.0490   8.4318   8.5203   8.8174

     occupation numbers 
     1.0000   1.0000   1.0000   1.0000   1.0000   1.0000   1.0000   1.0000
     1.0000   1.0000   1.0000   1.0000   1.0000   1.0000   1.0000   1.0000
     1.0000   1.0000   1.0000   1.0000   1.0000

          k = 0.1000 0.2000-0.5000 ( 11036 PWs)   bands (ev):

   -15.8228 -11.6312 -11.4317 -11.1594 -11.1565 -11.1488  -7.6068  -7.1525
    -6.0740  -1.0074  -0.9398  -0.8734   3.1424   5.4659   6.7051   7.0807
     7.7748   8.1333   8.3515   8.4652   8.7793

     occupation numbers 
     1.0000   1.0000   1.0000   1.0000   1.0000   1.0000   1.0000   1.0000
     1.0000   1.0000   1.0000   1.0000   1.0000   1.0000   1.0000   1.0000
     1.0000   1.0000   1.0000   1.0000   1.0000

          k = 0.1000 0.3000 0.3000 ( 11064 PWs)   bands (ev):

   -15.8261 -11.6091 -11.4617 -11.1583 -11.1527 -11.1525  -7.7972  -6.7373
    -6.2527  -1.0644  -0.9928  -0.8393   3.0094   5.5431   6.9899   7.0817
     7.7769   7.9344   8.4452   8.6291   9.0165

     occupation numbers 
     1.0000   1.0000   1.0000   1.0000   1.0000   1.0000   1.0000   1.0000
     1.0000   1.0000   1.0000   1.0000   1.0000   1.0000   1.0000   1.0000
     1.0000   1.0000   1.0000   1.0000   1.0000

          k = 0.1000 0.3000 0.4000 ( 11042 PWs)   bands (ev):

   -15.8146 -11.5989 -11.4051 -11.1606 -11.1555 -11.1525  -7.6310  -6.9944
    -6.3313  -1.0684  -1.0084  -0.8621   2.7961   5.6033   6.9639   7.3456
     7.8221   7.9479   8.3302   8.6128   9.0395

     occupation numbers 
     1.0000   1.0000   1.0000   1.0000   1.0000   1.0000   1.0000   1.0000
     1.0000   1.0000   1.0000   1.0000   1.0000   1.0000   1.0000   1.0000
     1.0000   1.0000   1.0000   1.0000   1.0000

          k = 0.1000 0.3000-0.5000 ( 11034 PWs)   bands (ev):

   -15.8102 -11.5964 -11.3817 -11.1615 -11.1566 -11.1525  -7.4894  -7.1834
    -6.3487  -1.0605  -1.0227  -0.8727   2.7269   5.6249   6.9235   7.4360
     7.8364   8.0232   8.2959   8.5690   9.0307

     occupation numbers 
     1.0000   1.0000   1.0000   1.0000   1.0000   1.0000   1.0000   1.0000
     1.0000   1.0000   1.0000   1.0000   1.0000   1.0000   1.0000   1.0000
     1.0000   1.0000   1.0000   1.0000   1.0000

          k = 0.1000 0.4000 0.4000 ( 11051 PWs)   bands (ev):

   -15.8041 -11.5825 -11.3515 -11.1625 -11.1555 -11.1555  -7.4758  -7.0865
    -6.5538  -1.0967  -1.0585  -0.8717   2.5556   5.7099   6.8508   7.7786
     7.8489   7.9590   8.2857   8.6375   9.1731

     occupation numbers 
     1.0000   1.0000   1.0000   1.0000   1.0000   1.0000   1.0000   1.0000
     1.0000   1.0000   1.0000   1.0000   1.0000   1.0000   1.0000   1.0000
     1.0000   1.0000   1.0000   1.0000   1.0000

          k = 0.1000 0.4000-0.5000 ( 11062 PWs)   bands (ev):

   -15.8001 -11.5779 -11.3287 -11.1633 -11.1566 -11.1555  -7.3311  -7.2088
    -6.6375  -1.0977  -1.0870  -0.8752   2.4762   5.7516   6.8112   7.8094
     7.8199   8.1128   8.3272   8.6009   9.2137

     occupation numbers 
     1.0000   1.0000   1.0000   1.0000   1.0000   1.0000   1.0000   1.0000
     1.0000   1.0000   1.0000   1.0000   1.0000   1.0000   1.0000   1.0000
     1.0000   1.0000   1.0000   1.0000   1.0000

          k = 0.1000-0.5000-0.5000 ( 11068 PWs)   bands (ev):

   -15.7961 -11.5725 -11.3059 -11.1639 -11.1566 -11.1566  -7.2186  -7.2186
    -6.8007  -1.1109  -1.1109  -0.8766   2.3930   5.8026   6.7720   7.7964
     7.7964   8.3564   8.3564   8.5417   9.2808

     occupation numbers 
     1.0000   1.0000   1.0000   1.0000   1.0000   1.0000   1.0000   1.0000
     1.0000   1.0000   1.0000   1.0000   1.0000   1.0000   1.0000   1.0000
     1.0000   1.0000   1.0000   1.0000   1.0000

          k = 0.2000 0.2000 0.2000 ( 11053 PWs)   bands (ev):

   -15.8439 -11.5825 -11.5825 -11.1524 -11.1524 -11.1511  -7.9596  -6.2772
    -6.2772  -1.0497  -1.0497  -0.8050   3.2238   6.0342   6.0342   7.2989
     7.8765   7.8765   8.7056   8.8383   8.8383

     occupation numbers 
     1.0000   1.0000   1.0000   1.0000   1.0000   1.0000   1.0000   1.0000
     1.0000   1.0000   1.0000   1.0000   1.0000   1.0000   1.0000   1.0000
     1.0000   1.0000   1.0000   1.0000   1.0000

          k = 0.2000 0.2000 0.3000 ( 11050 PWs)   bands (ev):

   -15.8294 -11.5818 -11.5051 -11.1564 -11.1546 -11.1518  -7.8506  -6.6095
    -6.2598  -1.0641  -1.0608  -0.8143   2.8760   6.0459   6.5756   7.1714
     7.7650   7.8784   8.6994   8.8221   8.8401

     occupation numbers 
     1.0000   1.0000   1.0000   1.0000   1.0000   1.0000   1.0000   1.0000
     1.0000   1.0000   1.0000   1.0000   1.0000   1.0000   1.0000   1.0000
     1.0000   1.0000   1.0000   1.0000   1.0000

          k = 0.2000 0.2000 0.4000 ( 11044 PWs)   bands (ev):

   -15.8176 -11.5812 -11.4404 -11.1597 -11.1568 -11.1519  -7.6831  -6.9572
    -6.2457  -1.0761  -1.0374  -0.8607   2.6725   6.0524   6.9021   7.1240
     7.7187   7.9709   8.6131   8.6884   8.8440

     occupation numbers 
     1.0000   1.0000   1.0000   1.0000   1.0000   1.0000   1.0000   1.0000
     1.0000   1.0000   1.0000   1.0000   1.0000   1.0000   1.0000   1.0000
     1.0000   1.0000   1.0000   1.0000   1.0000

          k = 0.2000 0.2000-0.5000 ( 11044 PWs)   bands (ev):

   -15.8131 -11.5810 -11.4152 -11.1610 -11.1577 -11.1520  -7.5457  -7.1634
    -6.2402  -1.0808  -1.0119  -0.8965   2.6067   6.0543   7.0036   7.1016
     7.7094   8.0990   8.5458   8.5748   8.8491

     occupation numbers 
     1.0000   1.0000   1.0000   1.0000   1.0000   1.0000   1.0000   1.0000
     1.0000   1.0000   1.0000   1.0000   1.0000   1.0000   1.0000   1.0000
     1.0000   1.0000   1.0000   1.0000   1.0000

          k = 0.2000 0.3000 0.3000 ( 11061 PWs)   bands (ev):

   -15.8160 -11.5442 -11.4613 -11.1592 -11.1561 -11.1547  -7.7461  -6.7178
    -6.4335  -1.1102  -1.0950  -0.8504   2.4841   6.3160   7.0323   7.1071
     7.7430   7.8291   8.7226   8.8081   8.9854

     occupation numbers 
     1.0000   1.0000   1.0000   1.0000   1.0000   1.0000   1.0000   1.0000
     1.0000   1.0000   1.0000   1.0000   1.0000   1.0000   1.0000   1.0000
     1.0000   1.0000   1.0000   1.0000   1.0000

          k = 0.2000 0.3000 0.4000 ( 11046 PWs)   bands (ev):

   -15.8052 -11.5349 -11.4021 -11.1619 -11.1581 -11.1557  -7.5856  -6.9824
    -6.4749  -1.1351  -1.1056  -0.9121   2.2481   6.3970   7.0862   7.4242
     7.7418   7.9137   8.6423   8.7676   9.0387

     occupation numbers 
     1.0000   1.0000   1.0000   1.0000   1.0000   1.0000   1.0000   1.0000
     1.0000   1.0000   1.0000   1.0000   1.0000   1.0000   1.0000   1.0000
     1.0000   1.0000   1.0000   1.0000   1.0000

          k = 0.2000 0.3000-0.5000 ( 11058 PWs)   bands (ev):

   -15.8010 -11.5331 -11.3772 -11.1631 -11.1589 -11.1559  -7.4425  -7.1776
    -6.4787  -1.1455  -1.0976  -0.9474   2.1704   6.4203   7.0855   7.5080
     7.7429   8.0705   8.5942   8.6944   9.0495

     occupation numbers 
     1.0000   1.0000   1.0000   1.0000   1.0000   1.0000   1.0000   1.0000
     1.0000   1.0000   1.0000   1.0000   1.0000   1.0000   1.0000   1.0000
     1.0000   1.0000   1.0000   1.0000   1.0000

          k = 0.2000 0.4000 0.4000 ( 11071 PWs)   bands (ev):

   -15.7951 -11.5143 -11.3513 -11.1640 -11.1591 -11.1584  -7.4416  -7.0633
    -6.6687  -1.1664  -1.1544  -0.9736   1.9872   6.5603   7.0738   7.7488
     7.7796   8.0515   8.6116   8.7821   9.1826

     occupation numbers 
     1.0000   1.0000   1.0000   1.0000   1.0000   1.0000   1.0000   1.0000
     1.0000   1.0000   1.0000   1.0000   1.0000   1.0000   1.0000   1.0000
     1.0000   1.0000   1.0000   1.0000   1.0000

          k = 0.2000 0.4000-0.5000 ( 11072 PWs)   bands (ev):

   -15.7912 -11.5093 -11.3282 -11.1648 -11.1599 -11.1590  -7.3012  -7.1895
    -6.7338  -1.1806  -1.1642  -1.0031   1.9001   6.6152   7.0696   7.7742
     7.7754   8.2670   8.6111   8.7270   9.2283

     occupation numbers 
     1.0000   1.0000   1.0000   1.0000   1.0000   1.0000   1.0000   1.0000
     1.0000   1.0000   1.0000   1.0000   1.0000   1.0000   1.0000   1.0000
     1.0000   1.0000   1.0000   1.0000   1.0000

          k = 0.2000-0.5000-0.5000 ( 11096 PWs)   bands (ev):

   -15.7874 -11.5031 -11.3058 -11.1655 -11.1602 -11.1602  -7.1942  -7.1942
    -6.8853  -1.1890  -1.1890  -1.0287   1.8093   6.6844   7.0661   7.7807
     7.7807   8.5452   8.6220   8.6220   9.2960

     occupation numbers 
     1.0000   1.0000   1.0000   1.0000   1.0000   1.0000   1.0000   1.0000
     1.0000   1.0000   1.0000   1.0000   1.0000   1.0000   1.0000   1.0000
     1.0000   1.0000   1.0000   1.0000   1.0000

          k = 0.3000 0.3000 0.3000 ( 11044 PWs)   bands (ev):

   -15.8036 -11.4607 -11.4607 -11.1603 -11.1603 -11.1573  -7.6513  -6.6933
    -6.6933  -1.1669  -1.1669  -0.9183   2.0527   7.0841   7.0841   7.1585
     7.7627   7.7627   8.9137   8.9137   8.9922

     occupation numbers 
     1.0000   1.0000   1.0000   1.0000   1.0000   1.0000   1.0000   1.0000
     1.0000   1.0000   1.0000   1.0000   1.0000   1.0000   1.0000   1.0000
     1.0000   1.0000   1.0000   1.0000   1.0000

          k = 0.3000 0.3000 0.4000 ( 11084 PWs)   bands (ev):

   -15.7934 -11.4602 -11.3902 -11.1637 -11.1613 -11.1593  -7.5049  -6.9770
    -6.6732  -1.2130  -1.1916  -1.0062   1.7862   7.1250   7.2252   7.5859
     7.7393   7.9004   8.8789   8.9157   9.0826

     occupation numbers 
     1.0000   1.0000   1.0000   1.0000   1.0000   1.0000   1.0000   1.0000
     1.0000   1.0000   1.0000   1.0000   1.0000   1.0000   1.0000   1.0000
     1.0000   1.0000   1.0000   1.0000   1.0000

          k = 0.3000 0.3000-0.5000 ( 11074 PWs)   bands (ev):

   -15.7895 -11.4600 -11.3625 -11.1650 -11.1617 -11.1600  -7.3644  -7.1708
    -6.6654  -1.2306  -1.1875  -1.0532   1.6972   7.1403   7.2603   7.6485
     7.7361   8.1308   8.8335   8.8604   9.1154

     occupation numbers 
     1.0000   1.0000   1.0000   1.0000   1.0000   1.0000   1.0000   1.0000
     1.0000   1.0000   1.0000   1.0000   1.0000   1.0000   1.0000   1.0000
     1.0000   1.0000   1.0000   1.0000   1.0000

          k = 0.3000 0.4000 0.4000 ( 11091 PWs)   bands (ev):

   -15.7838 -11.4259 -11.3510 -11.1657 -11.1635 -11.1621  -7.3835  -7.0342
    -6.8329  -1.2568  -1.2518  -1.1060   1.4959   7.3331   7.4412   7.7560
     7.7755   8.1106   8.9292   8.9787   9.1985

     occupation numbers 
     1.0000   1.0000   1.0000   1.0000   1.0000   1.0000   1.0000   1.0000
     1.0000   1.0000   1.0000   1.0000   1.0000   1.0000   1.0000   1.0000
     1.0000   1.0000   1.0000   1.0000   1.0000

          k = 0.3000 0.4000-0.5000 ( 11078 PWs)   bands (ev):

   -15.7801 -11.4209 -11.3271 -11.1667 -11.1639 -11.1634  -7.2561  -7.1655
    -6.8667  -1.2780  -1.2580  -1.1555   1.3978   7.3802   7.4994   7.7703
     7.7824   8.3495   8.9275   8.9556   9.2483

     occupation numbers 
     1.0000   1.0000   1.0000   1.0000   1.0000   1.0000   1.0000   1.0000
     1.0000   1.0000   1.0000   1.0000   1.0000   1.0000   1.0000   1.0000
     1.0000   1.0000   1.0000   1.0000   1.0000

          k = 0.3000-0.5000-0.5000 ( 11104 PWs)   bands (ev):

   -15.7766 -11.4130 -11.3057 -11.1674 -11.1647 -11.1647  -7.1636  -7.1636
    -6.9960  -1.2844  -1.2844  -1.2051   1.2964   7.4221   7.5999   7.7884
     7.7884   8.5495   8.9462   8.9462   9.3149

     occupation numbers 
     1.0000   1.0000   1.0000   1.0000   1.0000   1.0000   1.0000   1.0000
     1.0000   1.0000   1.0000   1.0000   1.0000   1.0000   1.0000   1.0000
     1.0000   1.0000   1.0000   1.0000   1.0000

          k = 0.4000 0.4000 0.4000 ( 11074 PWs)   bands (ev):

   -15.7747 -11.3508 -11.3508 -11.1670 -11.1670 -11.1653  -7.2973  -7.0103
    -7.0103  -1.3204  -1.3204  -1.2252   1.1825   7.5464   7.7772   7.7772
     8.1396   8.1396   9.1251   9.1251   9.2385

     occupation numbers 
     1.0000   1.0000   1.0000   1.0000   1.0000   1.0000   1.0000   1.0000
     1.0000   1.0000   1.0000   1.0000   1.0000   1.0000   1.0000   1.0000
     1.0000   1.0000   1.0000   1.0000   1.0000

          k = 0.4000 0.4000-0.5000 ( 11096 PWs)   bands (ev):

   -15.7712 -11.3507 -11.3211 -11.1683 -11.1671 -11.1669  -7.1978  -7.1459
    -7.0011  -1.3465  -1.3325  -1.2813   1.0759   7.6217   7.7878   7.7938
     8.1479   8.4207   9.1565   9.1662   9.2817

     occupation numbers 
     1.0000   1.0000   1.0000   1.0000   1.0000   1.0000   1.0000   1.0000
     1.0000   1.0000   1.0000   1.0000   1.0000   1.0000   1.0000   1.0000
     1.0000   1.0000   1.0000   1.0000   1.0000

          k = 0.4000-0.5000-0.5000 ( 11100 PWs)   bands (ev):

   -15.7677 -11.3360 -11.3056 -11.1690 -11.1682 -11.1682  -7.1383  -7.1383
    -7.0909  -1.3607  -1.3607  -1.3398   0.9663   7.7052   7.8047   7.8047
     8.2921   8.5531   9.2238   9.2238   9.3304

     occupation numbers 
     1.0000   1.0000   1.0000   1.0000   1.0000   1.0000   1.0000   1.0000
     1.0000   1.0000   1.0000   1.0000   1.0000   1.0000   1.0000   1.0000
     1.0000   1.0000   1.0000   1.0000   1.0000

          k =-0.5000-0.5000-0.5000 ( 11152 PWs)   bands (ev):

   -15.7644 -11.3056 -11.3056 -11.1696 -11.1696 -11.1696  -7.1286  -7.1286
    -7.1286  -1.3896  -1.3896  -1.3896   0.8536   7.8124   7.8124   7.8124
     8.5544   8.5544   9.3363   9.3363   9.3363

     occupation numbers 
     1.0000   1.0000   1.0000   1.0000   1.0000   1.0000   1.0000   1.0000
     1.0000   1.0000   1.0000   1.0000   1.0000   1.0000   1.0000   1.0000
     1.0000   1.0000   1.0000   1.0000   1.0000

     highest occupied level (ev):     9.3363

!    total energy              =    -742.56180356 Ry
     estimated scf accuracy    <          3.8E-09 Ry

     The total energy is the sum of the following terms:
     one-electron contribution =     -83.62463646 Ry
     hartree contribution      =      74.49142348 Ry
     xc contribution           =     -93.95457063 Ry
     ewald contribution        =    -221.33088051 Ry
     one-center paw contrib.   =    -418.14313943 Ry
      -> PAW hartree energy AE =      29.53343581 Ry
      -> PAW hartree energy PS =     -29.40350615 Ry
      -> PAW xc energy AE      =    -408.18794206 Ry
      -> PAW xc energy PS      =      20.08880044 Ry
      -> total E_H with PAW    =      74.62135313 Ry
      -> total E_XC with PAW   =    -482.05371225 Ry

     convergence has been achieved in  10 iterations


     -----------------------------------------------
     Non-local corr. energy    =       0.86894396 Ry
     -----------------------------------------------


     Forces acting on atoms (cartesian axes, Ry/au):

     atom    1 type  1   force =     0.00000000    0.00000000    0.00000000
     atom    2 type  2   force =     0.00000000    0.00000000    0.00000000
     atom    3 type  3   force =     0.00000000    0.00000000    0.00000000
     atom    4 type  3   force =     0.00000000    0.00000000    0.00000000
     atom    5 type  3   force =     0.00000000    0.00000000    0.00000000
     The non-local contrib.  to forces
     atom    1 type  1   force =     0.00000000    0.00000000    0.00000000
     atom    2 type  2   force =     0.00000000    0.00000000    0.00000000
     atom    3 type  3   force =     0.00000000    0.00000000    0.00000000
     atom    4 type  3   force =     0.00000000    0.00000000    0.00000000
     atom    5 type  3   force =     0.00000000    0.00000000    0.00000000
     The ionic contribution  to forces
     atom    1 type  1   force =     0.00000012    0.00000012    0.00000012
     atom    2 type  2   force =    -0.00000027   -0.00000027   -0.00000027
     atom    3 type  3   force =    -0.00000006    0.00000027   -0.00000006
     atom    4 type  3   force =    -0.00000006   -0.00000006    0.00000027
     atom    5 type  3   force =     0.00000027   -0.00000006   -0.00000006
     The local contribution  to forces
     atom    1 type  1   force =     0.00000014    0.00000014    0.00000014
     atom    2 type  2   force =     0.00000000    0.00000000    0.00000000
     atom    3 type  3   force =     0.00000000    0.00000065    0.00000000
     atom    4 type  3   force =     0.00000000    0.00000000    0.00000065
     atom    5 type  3   force =     0.00000065    0.00000000    0.00000000
     The core correction contribution to forces
     atom    1 type  1   force =    -0.00000002   -0.00000002   -0.00000002
     atom    2 type  2   force =     0.00000000    0.00000000    0.00000000
     atom    3 type  3   force =    -0.00000000    0.00000000   -0.00000000
     atom    4 type  3   force =    -0.00000000   -0.00000000    0.00000000
     atom    5 type  3   force =     0.00000000   -0.00000000   -0.00000000
     The Hubbard contrib.    to forces
     atom    1 type  1   force =     0.00000000    0.00000000    0.00000000
     atom    2 type  2   force =     0.00000000    0.00000000    0.00000000
     atom    3 type  3   force =     0.00000000    0.00000000    0.00000000
     atom    4 type  3   force =     0.00000000    0.00000000    0.00000000
     atom    5 type  3   force =     0.00000000    0.00000000    0.00000000
     The SCF correction term to forces
     atom    1 type  1   force =    -0.00000000   -0.00000000   -0.00000000
     atom    2 type  2   force =     0.00000000    0.00000000    0.00000000
     atom    3 type  3   force =     0.00000000    0.00000000    0.00000000
[...]
              0.106029078857024E+02
              0.161455960871236E+01
             -0.163759428230561E+01
              0.731453379138628E+00
             -0.141048477715637E+01
              0.847899871964542E+01
             -0.264799921074470E-01
              0.159774724632941E+01
              0.595600039003994E+01
              0.160416874970243E+01
             -0.452047147052981E+01
             -0.708559024044399E+01
              0.186336654471830E+00
             -0.814976731741044E+01
              0.268086503507816E+01
             -0.136869461482167E+01
             -0.324038353251105E+01
              0.307986701915575E+01
              0.115365923403595E+01
              0.299489635232275E+01
              0.765400384483002E-01
              0.464250227705529E+01
             -0.786356285184752E+01
             -0.576725136204601E+00
             -0.693525685151687E+01
              0.158728494564077E+01
              0.372189339347683E+01
             -0.545843428458255E+00
             -0.247935810021369E+01
              0.565091240679238E+01
             -0.262669093757128E+01
              0.183985108133736E+01
             -0.156428021510325E+01
              0.430121369034210E+01
              0.445128722029798E+01
             -0.201498084494914E+01
              0.412341577817689E+01
              0.158911462497424E+01
             -0.422604525739398E+01
             -0.254041763424917E+01
              0.657983460980110E+01
              0.322859692987863E+01
             -0.135091581133974E+00
             -0.779879119938116E+00
              0.101487350880651E+02
              0.589499716929969E+01
              0.213188467529525E+01
             -0.651425115586930E+01
              0.100379171626701E+02
             -0.473535718364466E+01
             -0.582345018798113E+01
             -0.873498716160180E+01
              0.409312118593281E+01
             -0.788666259429466E+01
              0.353091234378393E+01
              0.591921006929791E+01
              0.408634911744909E+01
              0.117716089595672E+01
              0.259356951386601E+01
             -0.655040972893099E+01
             -0.232190528436859E+01
             -0.196368194929236E+01
              0.333725575125946E+01
              0.654402148873059E+01
              0.685020064638337E+01
              0.531945617851447E+01
             -0.126628212841740E+01
              0.165245349715428E+01
             -0.513659052940163E-01
             -0.211860281499648E+01
              0.270625465806119E+01
              0.289650337127005E+01
             -0.385488988823907E+01
             -0.441053998062270E+01
             -0.184941134484961E+01
              0.484952342688942E+01
              0.239478501499953E+01
             -0.327167971079131E+01
             -0.500606468501712E+01
             -0.709545033852386E+01
              0.633601586707631E-01
              0.175957914873530E+01
             -0.268758125503312E+01
              0.100333884199625E+02
              0.427403920032894E+00
             -0.117275924020199E+02
              0.272432096209643E+01
              0.514155759918450E+01
             -0.220798787369645E+01
              0.342151137704496E+00
             -0.310092156228305E+01
              0.465129827762348E+01
              0.216201787244151E+01
             -0.599386337783267E+01
              0.715953516522262E+01
              0.139805556550582E+00
             -0.317299117997807E+01
             -0.365021009606141E+01
              0.142405398389169E+02
              0.646233253620847E+01
             -0.161908460538531E+01
              0.356476593981900E+01
             -0.642462486186214E+01
             -0.114350472700815E+01
             -0.626742683677829E+01
              0.252325246781653E+01
              0.412708337466837E+01
              0.505426421402800E+01
             -0.210686634960474E+01
              0.609820364089913E+00
              0.587964949229360E+01
              0.222041212932860E+01
              0.362511831430596E+01
              0.155741758269792E+01
             -0.104181263974690E+01
             -0.465711153300532E-01
             -0.101788735225040E+01
              0.138059794422901E+01
              0.352181360293535E+00
             -0.525179144375309E+01
              0.826930429210675E+01
              0.322940611666618E+01
             -0.582868411515039E+01
             -0.417279793483899E+01
             -0.625064616014034E+01
             -0.304271240360789E+01
             -0.207052335524936E+01
             -0.496366484391567E+01
             -0.476317721663292E+01
              0.620336674179698E+01
              0.473974894347751E+01
             -0.758348575809904E+00
              0.684157913641670E+01
              0.132689471187855E+01
             -0.111782700895033E+02
              0.605688546411269E+01
              0.128726664144910E+01
              0.489192779447182E+01
              0.108139053945897E+01
              0.829632445144554E+00
              0.101961456054765E+01
              0.261086761715822E+01
             -0.451578503603962E+01
             -0.227928531255905E+01
             -0.415840229945054E+01
             -0.333007005461155E+01
              0.167127330189590E+01
             -0.406400355409545E+01
              0.178059626275163E+01
              0.244346358156005E+01
             -0.255180688751136E+01
             -0.146974358986219E+01
             -0.637371436289342E-01
              0.707703719887536E+01
              0.901798728524504E+00
              0.698526019504612E+01
              0.227586600155268E+01
             -0.888896821657926E+01
             -0.312320811548195E+01
              0.292394680964002E+01
              0.658008465141840E+01
              0.140236260871524E+01
              0.263528992816483E+01
              0.640211666041693E+01
             -0.381401279690816E+01
             -0.590789029609572E+01
              0.786720358769508E+01
              0.678358296071124E-01
             -0.842958088537548E+01
              0.290162613148907E+01
              0.556375920224175E+01
             -0.116507873620902E+01
             -0.514630587317839E+01
              0.777362556718376E+00
              0.441385497743525E+00
             -0.274321325654866E+01
              0.112886205430387E+01
             -0.100177320712828E+01
              0.122090861778764E+02
              0.336600178255216E+01
             -0.562527499316213E+01
              0.167527888135420E+01
              0.775737342555382E+01
             -0.496440088253957E+01
             -0.153180601098024E+01
             -0.452759200749163E+01
              0.350859121355689E+01
              0.149679614445248E+01
              0.228338311438710E+01
              0.259259923311422E+00
              0.861601069218710E+01
             -0.507203504803628E+01
             -0.385788272829883E+01
             -0.400467771377962E+01
              0.359672588041075E+01
              0.841800512979169E+01
             -0.102826164686087E+01
              0.350817596148368E+01
             -0.474257954757130E+01
              0.493642856560985E+00
             -0.142564398022427E+01
             -0.336873568679977E+00
             -0.208001373054449E+01
             -0.184066580754500E+01
             -0.145243329496479E+01
              0.159522439385844E+01
              0.235509083669663E+01
             -0.562175182809131E+01
              0.413924916752011E+01
             -0.655569500485783E+01
              0.499868863525015E+01
             -0.575941182198203E+01
              0.889386655086749E+01
              0.481981463821842E+01
              0.518803447725300E+01
              0.116079476774209E+01
              0.124745104917893E+01
             -0.118619544332096E+02
              0.208460291711847E+01
              0.456013489668891E+00
              0.884643293167031E+00
             -0.177751812782161E+01
              0.896336344405020E+01
             -0.271632652030262E+01
             -0.357086592206965E+01
             -0.915631377993805E+01
             -0.317378033911568E+01
             -0.412590013379802E+01
             -0.369598095234384E+01
             -0.933592803744681E+00
             -0.182911777075120E+01
             -0.261655056820448E+01
             -0.388557808218144E+01
              0.297287702399007E+01
              0.943976017458913E+01
              0.799745621043392E+01
             -0.178945472937768E+01
             -0.983722058923362E+01
             -0.412808298548054E+01
              0.206170886470778E+01
              0.192369967145170E+01
              0.296057520290049E+01
              0.238983284369800E+01
              0.704336677774272E+00
              0.907892743892473E+01
             -0.227580270071945E+01
              0.463166412671636E+01
              0.211823811489602E+01
             -0.307166907583510E+01
             -0.178449961023449E+01
              0.425639728990636E+01
             -0.232127530847254E+01
             -0.166577575747406E+01
             -0.111155256958893E+01
              0.541738700579951E+01
             -0.708783630157000E+01
             -0.920916684247217E+00
             -0.569490108641634E+01
             -0.122845621002799E+02
              0.157740219674110E+00
             -0.158602517668426E+01
              0.449592856760854E+01
              0.510799656115371E+01
              0.695907622817480E+01
             -0.452849515738380E+01
              0.731387776173154E+01
              0.184215068203416E+01
             -0.213260976900363E+01
              0.125575667314090E+01
             -0.243032684916014E+01
             -0.151596947537969E+01
              0.380506011604923E+01
             -0.366340706262460E+01
              0.910331079933429E+01
             -0.226208442991920E+01
             -0.491381977838531E+01
              0.941461997158959E+01
             -0.515805511237728E+01
             -0.723383401696033E+00
              0.825430962820015E+00
              0.275449688726403E+01
             -0.412855111396134E+01
             -0.312031520474472E+01
              0.474298082410628E+01
             -0.770818472939225E+01
              0.579240602737171E+01
              0.883181150023228E+00
              0.439206684522549E+01
              0.619101492724617E+01
              0.137842662645784E+01
             -0.810956964193814E+01
             -0.367731388408286E+01
             -0.606785813406930E+01
             -0.377681068337999E+01
             -0.139295678852736E+01
              0.124358999329861E+01
             -0.263452366340274E+01
              0.236363549466589E+00
             -0.921305939479536E+01
              0.314300458638979E+00
             -0.579342814338034E+01
              0.561474694736100E+01
             -0.294596008840587E+01
             -0.675226858496110E+00
              0.410975527054780E+01
              0.602324034638745E+00
              0.410081352727173E+01
             -0.721485018083331E+01
              0.138540049430026E+01
              0.662889667576305E+00
              0.286079633634836E+01
              0.518146815177109E+01
             -0.779478250725298E+00
             -0.591165343454413E+01
             -0.332445308357849E+01
             -0.239941930356783E+01
             -0.108949560117509E+01
              0.547025747899980E+01
              0.348792012430389E+01
             -0.341134789799108E+01
             -0.332036295420794E+01
              0.273289142090348E+01
              0.256886301610967E+01
             -0.706650979714657E+01
              0.197445357721306E+01
              0.522244624463555E+01
             -0.191730201605540E+00
              0.623438507161581E+01
              0.312439176717545E+01
              0.491544682059559E+01
              0.729053425602031E+01
              0.101495283483405E+01
             -0.106389332478173E+02
              0.115052022712128E+01
              0.115131829621784E+02
              0.827099968163652E+01
             -0.562478191961626E+01
              0.504558774038411E+00
              0.706991219178866E+01
              0.641939282870211E+01
              0.283819814801545E+01
             -0.172933223127578E+01
              0.283105498282516E+01
              0.636994606715817E+01
             -0.276603449262964E+01
             -0.191494482626664E+01
              0.394394927317385E+01
             -0.330043238740540E+00
              0.354421990447844E+01
             -0.895877536578846E+00
              0.752351168211743E+01
             -0.285738189667448E+01
              0.153386002706893E+01
             -0.356370618501627E+01
              0.369679566405796E+01
             -0.412775912203308E+00
              0.561353693279773E+01
              0.281620024441249E+00
              0.212555619652908E+01
             -0.373348468887249E+01
             -0.247303584055923E+01
             -0.119929368624776E+01
             -0.949104139912974E+00
              0.607132538087624E+01
              0.253037987600920E+01
              0.772727757957685E+01
              0.619570174876926E+01
              0.147237867521191E+01
              0.124650456508927E+00
              0.739354779528042E+01
              0.402775099439817E+01
              0.104733504315870E+00
              0.682775041846246E+01
             -0.596064326315974E+01
              0.209052527725670E+01
             -0.374610993726075E+01
             -0.162415825695774E+01
              0.946698438289795E+01
             -0.145271365113776E+01
             -0.184756106387781E+00
             -0.129033352032793E+01
              0.785233059130315E+01
             -0.183812618927828E+01
             -0.189569814394659E+00
              0.159912608861060E+02
             -0.505679333367329E+01
             -0.535575331953073E+01
             -0.587443372278044E+01
             -0.342825533986598E+01
              0.342807845073376E+01
             -0.154930253121724E+01
              0.101836699210559E+01
             -0.235238168625159E+00
              0.189924845291627E+01
              0.330661397508764E+01
              0.364964448348562E+01
              0.578659172162617E+01
              0.312863774461805E+01
              0.399055604536905E+01
             -0.648792539599023E+01
             -0.602443509524142E+01
             -0.161625714932550E+01
             -0.590000512231492E+01
              0.969571037377947E+01
              0.825695110213001E+01
              0.393609956911547E+01
              0.104664623810062E+02
             -0.538868485158549E+01
             -0.240657378822624E+01
             -0.309473718096700E+01
              0.867406369641422E+01
 
 BEEF-vdW xc energy contributions
            1 :    -81.55004451250447     
            2 :     73.66448657519959     
            3 :    -60.29019851085651     
            4 :     45.11888280302034     
            5 :    -31.55359056302426     
            6 :     21.48883391924458     
            7 :    -15.00945088898874     
            8 :     10.98342759457405     
            9 :    -8.043730921213310     
           10 :     5.350066550548561     
           11 :    -2.790113455799712     
           12 :    0.6855931281262286     
           13 :    0.6628612497531350     
           14 :    -1.257784634136939     
           15 :     1.383591744169564     
           16 :    -1.383813915100504     
           17 :     1.446198033598975     
           18 :    -1.547850836399164     
           19 :     1.565008787533927     
           20 :    -1.432007305844834     
           21 :     1.218920522243607     
           22 :    -1.079380986423459     
           23 :     1.125017203869703     
           24 :    -1.331476256509276     
           25 :     1.545916501655938     
           26 :    -1.584448028718853     
           27 :     1.345678293068019     
           28 :   -0.8648037825461188     
           29 :    0.2828733729920430     
           30 :    0.2358074045879590     
           31 :    -8.072366094810334     
           32 :    -5.701868465498706     

     Writing all to output data dir ./BaSnO3.save/
 
     init_run     :      0.61s CPU      0.66s WALL (       1 calls)
     electrons    :      4.43s CPU      4.90s WALL (       1 calls)
     forces       :      0.13s CPU      0.14s WALL (       1 calls)
     stress       :      0.37s CPU      0.38s WALL (       1 calls)

     Called by init_run:
     wfcinit      :      0.09s CPU      0.10s WALL (       1 calls)
     wfcinit:atom :      0.00s CPU      0.00s WALL (       7 calls)
     wfcinit:wfcr :      0.08s CPU      0.09s WALL (       7 calls)
     potinit      :      0.38s CPU      0.42s WALL (       1 calls)
     hinit0       :      0.08s CPU      0.09s WALL (       1 calls)

     Called by electrons:
     c_bands      :      2.81s CPU      2.91s WALL (      10 calls)
     sum_band     :      0.48s CPU      0.49s WALL (      10 calls)
     v_of_rho     :      0.91s CPU      1.02s WALL (      11 calls)
     v_h          :      0.01s CPU      0.01s WALL (      11 calls)
     v_xc         :      3.12s CPU      3.31s WALL (      47 calls)
     newd         :      0.05s CPU      0.07s WALL (      11 calls)
     PAW_pot      :      0.44s CPU      0.65s WALL (      11 calls)
     mix_rho      :      0.03s CPU      0.03s WALL (      10 calls)
     vdW_kernel   :      0.25s CPU      0.25s WALL (       1 calls)

     Called by c_bands:
     init_us_2    :      0.04s CPU      0.05s WALL (     161 calls)
     init_us_2:cp :      0.04s CPU      0.04s WALL (     161 calls)
     cegterg      :      2.49s CPU      2.57s WALL (      70 calls)

     Called by sum_band:
     sum_band:wei :      0.00s CPU      0.00s WALL (      10 calls)
     sum_band:loo :      0.33s CPU      0.34s WALL (      10 calls)
     sum_band:buf :      0.01s CPU      0.01s WALL (      70 calls)
     sum_band:ini :      0.02s CPU      0.02s WALL (      70 calls)
     sum_band:cal :      0.03s CPU      0.03s WALL (      70 calls)
     sum_band:bec :      0.00s CPU      0.00s WALL (      70 calls)
     addusdens    :      0.07s CPU      0.07s WALL (      10 calls)
     addusd:skk   :      0.00s CPU      0.00s WALL (      30 calls)
     addusd:dgemm :      0.03s CPU      0.03s WALL (      30 calls)
     addusd:qvan2 :      0.03s CPU      0.03s WALL (      30 calls)

     Called by *egterg:
     cdiaghg      :      0.21s CPU      0.22s WALL (     386 calls)
     cegterg:over :      0.11s CPU      0.11s WALL (     316 calls)
     cegterg:upda :      0.05s CPU      0.05s WALL (     316 calls)
     cegterg:last :      0.09s CPU      0.09s WALL (     177 calls)
     h_psi        :      1.94s CPU      2.00s WALL (     393 calls)
     s_psi        :      0.09s CPU      0.09s WALL (     393 calls)
     g_psi        :      0.00s CPU      0.00s WALL (     316 calls)

     Called by h_psi:
     h_psi:calbec :      0.12s CPU      0.12s WALL (     393 calls)
     vloc_psi     :      1.71s CPU      1.76s WALL (     393 calls)
     add_vuspsi   :      0.10s CPU      0.10s WALL (     393 calls)

     General routines
     calbec       :      0.17s CPU      0.17s WALL (     498 calls)
     fft          :      1.26s CPU      1.30s WALL (    2778 calls)
     ffts         :      0.01s CPU      0.01s WALL (      10 calls)
     fftw         :      1.83s CPU      1.88s WALL (   10922 calls)
 
     Parallel routines

     PAW routines
     PAW_pot      :      0.44s CPU      0.65s WALL (      11 calls)
     PAW_symme    :      0.02s CPU      0.02s WALL (      21 calls)
 
     PWSCF        :      8.43s CPU      9.59s WALL

 
   This run was terminated on:  10:21:33  20Jul2023            

=------------------------------------------------------------------------------=
   JOB DONE.
=------------------------------------------------------------------------------=
