
     Program PWSCF v.7.1 starts on 21Jul2023 at 13:29:28 

     This program is part of the open-source Quantum ESPRESSO suite
     for quantum simulation of materials; please cite
         "P. Giannozzi et al., J. Phys.:Condens. Matter 21 395502 (2009);
         "P. Giannozzi et al., J. Phys.:Condens. Matter 29 465901 (2017);
         "P. Giannozzi et al., J. Chem. Phys. 152 154105 (2020);
          URL http://www.quantum-espresso.org", 
     in publications or presentations arising from this work. More details at
     http://www.quantum-espresso.org/quote

     Parallel version (MPI & OpenMP), running on     512 processor cores
     Number of MPI processes:               512
     Threads/MPI process:                     1

     MPI processes distributed on     4 nodes
     1951202 MiB available memory on the printing compute node when the environment starts
 
     Reading input from espresso.pwi
Warning: card &CELL ignored
Warning: card    CELL_FACTOR      = 4 ignored
Warning: card / ignored

     Current dimensions of program PWSCF are:
     Max number of different atomic species (ntypx) = 10
     Max number of k-points (npk) =  40000
     Max angular momentum in pseudopotentials (lmaxx) =  4
     file O.pbe-n-kjpaw_psl.0.1.UPF: wavefunction(s)  2P renormalized

     **************************************************************************
     Initializing libbeef V0.1.2 with the BEEF-vdW functional.
     Citation: Wellendorff et al., PRB 85, 235149 (2012).
     **************************************************************************


     IMPORTANT: XC functional enforced from input :
     Exchange-correlation= BEEF-VDW
                           (   1   4  43  14   2   0   0)
     Any further DFT definition will be discarded
     Please, verify this is what you really want

 
     K-points division:     npool     =      32
     R & G space division:  proc/nbgrp/npool/nimage =      16
     Subspace diagonalization in iterative solution of the eigenvalue problem:
     a serial algorithm will be used

 
     Parallelization info
     --------------------
     sticks:   dense  smooth     PW     G-vecs:    dense   smooth      PW
     Min         258     258     72                 8379     8379    1228
     Max         260     260     73                 8380     8380    1229
     Sum        4141    4141   1153               134077   134077   19649
 
     Using Slab Decomposition
 


     bravais-lattice index     =            6
     lattice parameter (alat)  =      10.3943  a.u.
     unit-cell volume          =     754.5705 (a.u.)^3
     number of atoms/cell      =            8
     number of atomic types    =            1
     number of electrons       =        48.00
     number of Kohn-Sham states=           24
     kinetic-energy cutoff     =     120.0000  Ry
     charge density cutoff     =     480.0000  Ry
     scf convergence threshold =      1.0E-08
     mixing beta               =       0.7000
     number of iterations used =            8  plain     mixing
     Exchange-correlation= BEEF-VDW
                           (   1   4  43  14   2   0   0)

     celldm(1)=  10.394316  celldm(2)=   0.000000  celldm(3)=   0.671912
     celldm(4)=   0.000000  celldm(5)=   0.000000  celldm(6)=   0.000000

     crystal axes: (cart. coord. in units of alat)
               a(1) = (   1.000000   0.000000   0.000000 )  
               a(2) = (   0.000000   1.000000   0.000000 )  
               a(3) = (   0.000000   0.000000   0.671912 )  

     reciprocal axes: (cart. coord. in units 2 pi/alat)
               b(1) = (  1.000000  0.000000  0.000000 )  
               b(2) = (  0.000000  1.000000  0.000000 )  
               b(3) = (  0.000000  0.000000  1.488291 )  


     PseudoPot. # 1 for O  read from file:
     /trace/home/atimmins/packages/espresso/pseudo/O.pbe-n-kjpaw_psl.0.1.UPF
     MD5 check sum: 0234752ac141de4415c5fc33072bef88
     Pseudo is Projector augmented-wave + core cor, Zval =  6.0
     Generated using "atomic" code by A. Dal Corso  v.5.0.99 svn rev. 10869
     Shape of augmentation charge: BESSEL
     Using radial grid of 1095 points,  4 beta functions with: 
                l(1) =   0
                l(2) =   0
                l(3) =   1
                l(4) =   1
     Q(r) pseudized with 0 coefficients 


     atomic species   valence    mass     pseudopotential
        O              6.00    15.99900     O ( 1.00)

      8 Sym. Ops. (no inversion) found ( 6 have fractional translation)


                                    s                        frac. trans.

      isym =  1     identity                                     

 cryst.   s( 1) = (     1          0          0      )
                  (     0          1          0      )
                  (     0          0          1      )

 cart.    s( 1) = (  1.0000000  0.0000000  0.0000000 )
                  (  0.0000000  1.0000000  0.0000000 )
                  (  0.0000000  0.0000000  1.0000000 )


      isym =  2     180 deg rotation - cart. axis [0,0,1]        

 cryst.   s( 2) = (    -1          0          0      )    f =(  0.0000000 )
                  (     0         -1          0      )       (  0.0000000 )
                  (     0          0          1      )       ( -0.5000000 )

 cart.    s( 2) = ( -1.0000000  0.0000000  0.0000000 )    f =(  0.0000000 )
                  (  0.0000000 -1.0000000  0.0000000 )       (  0.0000000 )
                  (  0.0000000  0.0000000  1.0000000 )       ( -0.3359558 )


      isym =  3     180 deg rotation - cart. axis [0,1,0]        

 cryst.   s( 3) = (    -1          0          0      )    f =( -0.5000000 )
                  (     0          1          0      )       (  0.5000000 )
                  (     0          0         -1      )       ( -0.2500000 )

 cart.    s( 3) = ( -1.0000000  0.0000000  0.0000000 )    f =( -0.5000000 )
                  (  0.0000000  1.0000000  0.0000000 )       (  0.5000000 )
                  (  0.0000000  0.0000000 -1.0000000 )       ( -0.1679779 )


      isym =  4     180 deg rotation - cart. axis [1,0,0]        

 cryst.   s( 4) = (     1          0          0      )    f =(  0.5000000 )
                  (     0         -1          0      )       ( -0.5000000 )
                  (     0          0         -1      )       (  0.2500000 )

 cart.    s( 4) = (  1.0000000  0.0000000  0.0000000 )    f =(  0.5000000 )
                  (  0.0000000 -1.0000000  0.0000000 )       ( -0.5000000 )
                  (  0.0000000  0.0000000 -1.0000000 )       (  0.1679779 )


      isym =  5     180 deg rotation - cart. axis [1,1,0]        

 cryst.   s( 5) = (     0          1          0      )
                  (     1          0          0      )
                  (     0          0         -1      )

 cart.    s( 5) = (  0.0000000  1.0000000  0.0000000 )
                  (  1.0000000  0.0000000  0.0000000 )
                  (  0.0000000  0.0000000 -1.0000000 )


      isym =  6     180 deg rotation - cart. axis [1,-1,0]       

 cryst.   s( 6) = (     0         -1          0      )    f =(  0.0000000 )
                  (    -1          0          0      )       (  0.0000000 )
                  (     0          0         -1      )       ( -0.5000000 )

 cart.    s( 6) = (  0.0000000 -1.0000000  0.0000000 )    f =(  0.0000000 )
                  ( -1.0000000  0.0000000  0.0000000 )       (  0.0000000 )
                  (  0.0000000  0.0000000 -1.0000000 )       ( -0.3359558 )


      isym =  7      90 deg rotation - cart. axis [0,0,-1]       

 cryst.   s( 7) = (     0         -1          0      )    f =(  0.5000000 )
                  (     1          0          0      )       ( -0.5000000 )
                  (     0          0          1      )       (  0.2500000 )

 cart.    s( 7) = (  0.0000000  1.0000000  0.0000000 )    f =(  0.5000000 )
                  ( -1.0000000  0.0000000  0.0000000 )       ( -0.5000000 )
                  (  0.0000000  0.0000000  1.0000000 )       (  0.1679779 )


      isym =  8      90 deg rotation - cart. axis [0,0,1]        

 cryst.   s( 8) = (     0          1          0      )    f =( -0.5000000 )
                  (    -1          0          0      )       (  0.5000000 )
                  (     0          0          1      )       ( -0.2500000 )

 cart.    s( 8) = (  0.0000000 -1.0000000  0.0000000 )    f =( -0.5000000 )
                  (  1.0000000  0.0000000  0.0000000 )       (  0.5000000 )
                  (  0.0000000  0.0000000  1.0000000 )       ( -0.1679779 )


     point group D_4 (422)  
     there are  5 classes
     the character table:

       E     2C4   C2    2C2'  2C2''
A_1    1.00  1.00  1.00  1.00  1.00
A_2    1.00  1.00  1.00 -1.00 -1.00
B_1    1.00 -1.00  1.00  1.00 -1.00
B_2    1.00 -1.00  1.00 -1.00  1.00
E      2.00  0.00 -2.00  0.00  0.00

     the symmetry operations in each class and the name of the first element:

     E        1
          identity                                               
     2C4      7    8
           90 deg rotation - cart. axis [0,0,-1]                 
     C2       2
          180 deg rotation - cart. axis [0,0,1]                  
     2C2'     3    4
          180 deg rotation - cart. axis [0,1,0]                  
     2C2''    5    6
          180 deg rotation - cart. axis [1,1,0]                  

   Cartesian axes

     site n.     atom                  positions (alat units)
         1           O   tau(   1) = (   0.3937253   0.2661089   0.4007198  )
         2           O   tau(   2) = (   0.6062747   0.7338911   0.0647640  )
         3           O   tau(   3) = (   0.7661089   0.1062747   0.2327419  )
         4           O   tau(   4) = (   0.2338911   0.8937253   0.5686977  )
         5           O   tau(   5) = (   0.7338911   0.6062747   0.6071475  )
         6           O   tau(   6) = (   0.2661089   0.3937253   0.2711918  )
         7           O   tau(   7) = (   0.1062747   0.7661089   0.4391697  )
         8           O   tau(   8) = (   0.8937253   0.2338911   0.1032139  )

   Crystallographic axes

     site n.     atom                  positions (cryst. coord.)
         1           O   tau(   1) = (  0.3937253  0.2661089  0.5963877  )
         2           O   tau(   2) = (  0.6062747  0.7338911  0.0963877  )
         3           O   tau(   3) = (  0.7661089  0.1062747  0.3463877  )
         4           O   tau(   4) = (  0.2338911  0.8937253  0.8463877  )
         5           O   tau(   5) = (  0.7338911  0.6062747  0.9036123  )
         6           O   tau(   6) = (  0.2661089  0.3937253  0.4036123  )
         7           O   tau(   7) = (  0.1062747  0.7661089  0.6536123  )
         8           O   tau(   8) = (  0.8937253  0.2338911  0.1536123  )

     number of k points=   126
                       cart. coord. in units 2pi/alat
        k(    1) = (   0.0000000   0.0000000   0.0000000), wk =   0.0020000
        k(    2) = (   0.0000000   0.0000000   0.1488291), wk =   0.0040000
        k(    3) = (   0.0000000   0.0000000   0.2976582), wk =   0.0040000
        k(    4) = (   0.0000000   0.0000000   0.4464873), wk =   0.0040000
        k(    5) = (   0.0000000   0.0000000   0.5953164), wk =   0.0040000
        k(    6) = (   0.0000000   0.0000000  -0.7441455), wk =   0.0020000
        k(    7) = (   0.0000000   0.1000000   0.0000000), wk =   0.0080000
        k(    8) = (   0.0000000   0.1000000   0.1488291), wk =   0.0160000
        k(    9) = (   0.0000000   0.1000000   0.2976582), wk =   0.0160000
        k(   10) = (   0.0000000   0.1000000   0.4464873), wk =   0.0160000
        k(   11) = (   0.0000000   0.1000000   0.5953164), wk =   0.0160000
        k(   12) = (   0.0000000   0.1000000  -0.7441455), wk =   0.0080000
        k(   13) = (   0.0000000   0.2000000   0.0000000), wk =   0.0080000
        k(   14) = (   0.0000000   0.2000000   0.1488291), wk =   0.0160000
        k(   15) = (   0.0000000   0.2000000   0.2976582), wk =   0.0160000
        k(   16) = (   0.0000000   0.2000000   0.4464873), wk =   0.0160000
        k(   17) = (   0.0000000   0.2000000   0.5953164), wk =   0.0160000
        k(   18) = (   0.0000000   0.2000000  -0.7441455), wk =   0.0080000
        k(   19) = (   0.0000000   0.3000000   0.0000000), wk =   0.0080000
        k(   20) = (   0.0000000   0.3000000   0.1488291), wk =   0.0160000
        k(   21) = (   0.0000000   0.3000000   0.2976582), wk =   0.0160000
        k(   22) = (   0.0000000   0.3000000   0.4464873), wk =   0.0160000
        k(   23) = (   0.0000000   0.3000000   0.5953164), wk =   0.0160000
        k(   24) = (   0.0000000   0.3000000  -0.7441455), wk =   0.0080000
        k(   25) = (   0.0000000   0.4000000   0.0000000), wk =   0.0080000
        k(   26) = (   0.0000000   0.4000000   0.1488291), wk =   0.0160000
        k(   27) = (   0.0000000   0.4000000   0.2976582), wk =   0.0160000
        k(   28) = (   0.0000000   0.4000000   0.4464873), wk =   0.0160000
        k(   29) = (   0.0000000   0.4000000   0.5953164), wk =   0.0160000
        k(   30) = (   0.0000000   0.4000000  -0.7441455), wk =   0.0080000
        k(   31) = (   0.0000000  -0.5000000   0.0000000), wk =   0.0040000
        k(   32) = (   0.0000000  -0.5000000   0.1488291), wk =   0.0080000
        k(   33) = (   0.0000000  -0.5000000   0.2976582), wk =   0.0080000
        k(   34) = (   0.0000000  -0.5000000   0.4464873), wk =   0.0080000
        k(   35) = (   0.0000000  -0.5000000   0.5953164), wk =   0.0080000
        k(   36) = (   0.0000000  -0.5000000  -0.7441455), wk =   0.0040000
        k(   37) = (   0.1000000   0.1000000   0.0000000), wk =   0.0080000
        k(   38) = (   0.1000000   0.1000000   0.1488291), wk =   0.0160000
        k(   39) = (   0.1000000   0.1000000   0.2976582), wk =   0.0160000
        k(   40) = (   0.1000000   0.1000000   0.4464873), wk =   0.0160000
        k(   41) = (   0.1000000   0.1000000   0.5953164), wk =   0.0160000
        k(   42) = (   0.1000000   0.1000000  -0.7441455), wk =   0.0080000
        k(   43) = (   0.1000000   0.2000000   0.0000000), wk =   0.0160000
        k(   44) = (   0.1000000   0.2000000   0.1488291), wk =   0.0320000
        k(   45) = (   0.1000000   0.2000000   0.2976582), wk =   0.0320000
        k(   46) = (   0.1000000   0.2000000   0.4464873), wk =   0.0320000
        k(   47) = (   0.1000000   0.2000000   0.5953164), wk =   0.0320000
        k(   48) = (   0.1000000   0.2000000  -0.7441455), wk =   0.0160000
        k(   49) = (   0.1000000   0.3000000   0.0000000), wk =   0.0160000
        k(   50) = (   0.1000000   0.3000000   0.1488291), wk =   0.0320000
        k(   51) = (   0.1000000   0.3000000   0.2976582), wk =   0.0320000
        k(   52) = (   0.1000000   0.3000000   0.4464873), wk =   0.0320000
        k(   53) = (   0.1000000   0.3000000   0.5953164), wk =   0.0320000
        k(   54) = (   0.1000000   0.3000000  -0.7441455), wk =   0.0160000
        k(   55) = (   0.1000000   0.4000000   0.0000000), wk =   0.0160000
        k(   56) = (   0.1000000   0.4000000   0.1488291), wk =   0.0320000
        k(   57) = (   0.1000000   0.4000000   0.2976582), wk =   0.0320000
        k(   58) = (   0.1000000   0.4000000   0.4464873), wk =   0.0320000
        k(   59) = (   0.1000000   0.4000000   0.5953164), wk =   0.0320000
        k(   60) = (   0.1000000   0.4000000  -0.7441455), wk =   0.0160000
        k(   61) = (   0.1000000  -0.5000000   0.0000000), wk =   0.0080000
        k(   62) = (   0.1000000  -0.5000000   0.1488291), wk =   0.0160000
        k(   63) = (   0.1000000  -0.5000000   0.2976582), wk =   0.0160000
        k(   64) = (   0.1000000  -0.5000000   0.4464873), wk =   0.0160000
        k(   65) = (   0.1000000  -0.5000000   0.5953164), wk =   0.0160000
        k(   66) = (   0.1000000  -0.5000000  -0.7441455), wk =   0.0080000
        k(   67) = (   0.2000000   0.2000000   0.0000000), wk =   0.0080000
        k(   68) = (   0.2000000   0.2000000   0.1488291), wk =   0.0160000
        k(   69) = (   0.2000000   0.2000000   0.2976582), wk =   0.0160000
        k(   70) = (   0.2000000   0.2000000   0.4464873), wk =   0.0160000
        k(   71) = (   0.2000000   0.2000000   0.5953164), wk =   0.0160000
        k(   72) = (   0.2000000   0.2000000  -0.7441455), wk =   0.0080000
        k(   73) = (   0.2000000   0.3000000   0.0000000), wk =   0.0160000
        k(   74) = (   0.2000000   0.3000000   0.1488291), wk =   0.0320000
        k(   75) = (   0.2000000   0.3000000   0.2976582), wk =   0.0320000
        k(   76) = (   0.2000000   0.3000000   0.4464873), wk =   0.0320000
        k(   77) = (   0.2000000   0.3000000   0.5953164), wk =   0.0320000
        k(   78) = (   0.2000000   0.3000000  -0.7441455), wk =   0.0160000
        k(   79) = (   0.2000000   0.4000000   0.0000000), wk =   0.0160000
        k(   80) = (   0.2000000   0.4000000   0.1488291), wk =   0.0320000
        k(   81) = (   0.2000000   0.4000000   0.2976582), wk =   0.0320000
        k(   82) = (   0.2000000   0.4000000   0.4464873), wk =   0.0320000
        k(   83) = (   0.2000000   0.4000000   0.5953164), wk =   0.0320000
        k(   84) = (   0.2000000   0.4000000  -0.7441455), wk =   0.0160000
        k(   85) = (   0.2000000  -0.5000000   0.0000000), wk =   0.0080000
        k(   86) = (   0.2000000  -0.5000000   0.1488291), wk =   0.0160000
        k(   87) = (   0.2000000  -0.5000000   0.2976582), wk =   0.0160000
        k(   88) = (   0.2000000  -0.5000000   0.4464873), wk =   0.0160000
        k(   89) = (   0.2000000  -0.5000000   0.5953164), wk =   0.0160000
        k(   90) = (   0.2000000  -0.5000000  -0.7441455), wk =   0.0080000
        k(   91) = (   0.3000000   0.3000000   0.0000000), wk =   0.0080000
        k(   92) = (   0.3000000   0.3000000   0.1488291), wk =   0.0160000
        k(   93) = (   0.3000000   0.3000000   0.2976582), wk =   0.0160000
        k(   94) = (   0.3000000   0.3000000   0.4464873), wk =   0.0160000
        k(   95) = (   0.3000000   0.3000000   0.5953164), wk =   0.0160000
        k(   96) = (   0.3000000   0.3000000  -0.7441455), wk =   0.0080000
        k(   97) = (   0.3000000   0.4000000   0.0000000), wk =   0.0160000
        k(   98) = (   0.3000000   0.4000000   0.1488291), wk =   0.0320000
        k(   99) = (   0.3000000   0.4000000   0.2976582), wk =   0.0320000
        k(  100) = (   0.3000000   0.4000000   0.4464873), wk =   0.0320000
        k(  101) = (   0.3000000   0.4000000   0.5953164), wk =   0.0320000
        k(  102) = (   0.3000000   0.4000000  -0.7441455), wk =   0.0160000
        k(  103) = (   0.3000000  -0.5000000   0.0000000), wk =   0.0080000
        k(  104) = (   0.3000000  -0.5000000   0.1488291), wk =   0.0160000
        k(  105) = (   0.3000000  -0.5000000   0.2976582), wk =   0.0160000
        k(  106) = (   0.3000000  -0.5000000   0.4464873), wk =   0.0160000
        k(  107) = (   0.3000000  -0.5000000   0.5953164), wk =   0.0160000
        k(  108) = (   0.3000000  -0.5000000  -0.7441455), wk =   0.0080000
        k(  109) = (   0.4000000   0.4000000   0.0000000), wk =   0.0080000
        k(  110) = (   0.4000000   0.4000000   0.1488291), wk =   0.0160000
        k(  111) = (   0.4000000   0.4000000   0.2976582), wk =   0.0160000
        k(  112) = (   0.4000000   0.4000000   0.4464873), wk =   0.0160000
        k(  113) = (   0.4000000   0.4000000   0.5953164), wk =   0.0160000
        k(  114) = (   0.4000000   0.4000000  -0.7441455), wk =   0.0080000
        k(  115) = (   0.4000000  -0.5000000   0.0000000), wk =   0.0080000
        k(  116) = (   0.4000000  -0.5000000   0.1488291), wk =   0.0160000
        k(  117) = (   0.4000000  -0.5000000   0.2976582), wk =   0.0160000
        k(  118) = (   0.4000000  -0.5000000   0.4464873), wk =   0.0160000
        k(  119) = (   0.4000000  -0.5000000   0.5953164), wk =   0.0160000
        k(  120) = (   0.4000000  -0.5000000  -0.7441455), wk =   0.0080000
        k(  121) = (  -0.5000000  -0.5000000   0.0000000), wk =   0.0020000
        k(  122) = (  -0.5000000  -0.5000000   0.1488291), wk =   0.0040000
        k(  123) = (  -0.5000000  -0.5000000   0.2976582), wk =   0.0040000
        k(  124) = (  -0.5000000  -0.5000000   0.4464873), wk =   0.0040000
        k(  125) = (  -0.5000000  -0.5000000   0.5953164), wk =   0.0040000
        k(  126) = (  -0.5000000  -0.5000000  -0.7441455), wk =   0.0020000

                       cryst. coord.
        k(    1) = (   0.0000000   0.0000000   0.0000000), wk =   0.0020000
        k(    2) = (   0.0000000   0.0000000   0.1000000), wk =   0.0040000
        k(    3) = (   0.0000000   0.0000000   0.2000000), wk =   0.0040000
        k(    4) = (   0.0000000   0.0000000   0.3000000), wk =   0.0040000
        k(    5) = (   0.0000000   0.0000000   0.4000000), wk =   0.0040000
        k(    6) = (   0.0000000   0.0000000  -0.5000000), wk =   0.0020000
        k(    7) = (   0.0000000   0.1000000   0.0000000), wk =   0.0080000
        k(    8) = (   0.0000000   0.1000000   0.1000000), wk =   0.0160000
        k(    9) = (   0.0000000   0.1000000   0.2000000), wk =   0.0160000
        k(   10) = (   0.0000000   0.1000000   0.3000000), wk =   0.0160000
        k(   11) = (   0.0000000   0.1000000   0.4000000), wk =   0.0160000
        k(   12) = (   0.0000000   0.1000000  -0.5000000), wk =   0.0080000
        k(   13) = (   0.0000000   0.2000000   0.0000000), wk =   0.0080000
        k(   14) = (   0.0000000   0.2000000   0.1000000), wk =   0.0160000
        k(   15) = (   0.0000000   0.2000000   0.2000000), wk =   0.0160000
        k(   16) = (   0.0000000   0.2000000   0.3000000), wk =   0.0160000
        k(   17) = (   0.0000000   0.2000000   0.4000000), wk =   0.0160000
        k(   18) = (   0.0000000   0.2000000  -0.5000000), wk =   0.0080000
        k(   19) = (   0.0000000   0.3000000   0.0000000), wk =   0.0080000
        k(   20) = (   0.0000000   0.3000000   0.1000000), wk =   0.0160000
        k(   21) = (   0.0000000   0.3000000   0.2000000), wk =   0.0160000
        k(   22) = (   0.0000000   0.3000000   0.3000000), wk =   0.0160000
        k(   23) = (   0.0000000   0.3000000   0.4000000), wk =   0.0160000
        k(   24) = (   0.0000000   0.3000000  -0.5000000), wk =   0.0080000
        k(   25) = (   0.0000000   0.4000000   0.0000000), wk =   0.0080000
        k(   26) = (   0.0000000   0.4000000   0.1000000), wk =   0.0160000
        k(   27) = (   0.0000000   0.4000000   0.2000000), wk =   0.0160000
        k(   28) = (   0.0000000   0.4000000   0.3000000), wk =   0.0160000
        k(   29) = (   0.0000000   0.4000000   0.4000000), wk =   0.0160000
        k(   30) = (   0.0000000   0.4000000  -0.5000000), wk =   0.0080000
        k(   31) = (   0.0000000  -0.5000000   0.0000000), wk =   0.0040000
        k(   32) = (   0.0000000  -0.5000000   0.1000000), wk =   0.0080000
        k(   33) = (   0.0000000  -0.5000000   0.2000000), wk =   0.0080000
        k(   34) = (   0.0000000  -0.5000000   0.3000000), wk =   0.0080000
        k(   35) = (   0.0000000  -0.5000000   0.4000000), wk =   0.0080000
        k(   36) = (   0.0000000  -0.5000000  -0.5000000), wk =   0.0040000
        k(   37) = (   0.1000000   0.1000000   0.0000000), wk =   0.0080000
        k(   38) = (   0.1000000   0.1000000   0.1000000), wk =   0.0160000
        k(   39) = (   0.1000000   0.1000000   0.2000000), wk =   0.0160000
        k(   40) = (   0.1000000   0.1000000   0.3000000), wk =   0.0160000
        k(   41) = (   0.1000000   0.1000000   0.4000000), wk =   0.0160000
        k(   42) = (   0.1000000   0.1000000  -0.5000000), wk =   0.0080000
        k(   43) = (   0.1000000   0.2000000   0.0000000), wk =   0.0160000
        k(   44) = (   0.1000000   0.2000000   0.1000000), wk =   0.0320000
        k(   45) = (   0.1000000   0.2000000   0.2000000), wk =   0.0320000
        k(   46) = (   0.1000000   0.2000000   0.3000000), wk =   0.0320000
        k(   47) = (   0.1000000   0.2000000   0.4000000), wk =   0.0320000
        k(   48) = (   0.1000000   0.2000000  -0.5000000), wk =   0.0160000
        k(   49) = (   0.1000000   0.3000000   0.0000000), wk =   0.0160000
        k(   50) = (   0.1000000   0.3000000   0.1000000), wk =   0.0320000
        k(   51) = (   0.1000000   0.3000000   0.2000000), wk =   0.0320000
        k(   52) = (   0.1000000   0.3000000   0.3000000), wk =   0.0320000
        k(   53) = (   0.1000000   0.3000000   0.4000000), wk =   0.0320000
        k(   54) = (   0.1000000   0.3000000  -0.5000000), wk =   0.0160000
        k(   55) = (   0.1000000   0.4000000   0.0000000), wk =   0.0160000
        k(   56) = (   0.1000000   0.4000000   0.1000000), wk =   0.0320000
        k(   57) = (   0.1000000   0.4000000   0.2000000), wk =   0.0320000
        k(   58) = (   0.1000000   0.4000000   0.3000000), wk =   0.0320000
        k(   59) = (   0.1000000   0.4000000   0.4000000), wk =   0.0320000
        k(   60) = (   0.1000000   0.4000000  -0.5000000), wk =   0.0160000
        k(   61) = (   0.1000000  -0.5000000   0.0000000), wk =   0.0080000
        k(   62) = (   0.1000000  -0.5000000   0.1000000), wk =   0.0160000
        k(   63) = (   0.1000000  -0.5000000   0.2000000), wk =   0.0160000
        k(   64) = (   0.1000000  -0.5000000   0.3000000), wk =   0.0160000
        k(   65) = (   0.1000000  -0.5000000   0.4000000), wk =   0.0160000
        k(   66) = (   0.1000000  -0.5000000  -0.5000000), wk =   0.0080000
        k(   67) = (   0.2000000   0.2000000   0.0000000), wk =   0.0080000
        k(   68) = (   0.2000000   0.2000000   0.1000000), wk =   0.0160000
        k(   69) = (   0.2000000   0.2000000   0.2000000), wk =   0.0160000
        k(   70) = (   0.2000000   0.2000000   0.3000000), wk =   0.0160000
        k(   71) = (   0.2000000   0.2000000   0.4000000), wk =   0.0160000
        k(   72) = (   0.2000000   0.2000000  -0.5000000), wk =   0.0080000
        k(   73) = (   0.2000000   0.3000000   0.0000000), wk =   0.0160000
        k(   74) = (   0.2000000   0.3000000   0.1000000), wk =   0.0320000
        k(   75) = (   0.2000000   0.3000000   0.2000000), wk =   0.0320000
        k(   76) = (   0.2000000   0.3000000   0.3000000), wk =   0.0320000
        k(   77) = (   0.2000000   0.3000000   0.4000000), wk =   0.0320000
        k(   78) = (   0.2000000   0.3000000  -0.5000000), wk =   0.0160000
        k(   79) = (   0.2000000   0.4000000   0.0000000), wk =   0.0160000
        k(   80) = (   0.2000000   0.4000000   0.1000000), wk =   0.0320000
        k(   81) = (   0.2000000   0.4000000   0.2000000), wk =   0.0320000
        k(   82) = (   0.2000000   0.4000000   0.3000000), wk =   0.0320000
        k(   83) = (   0.2000000   0.4000000   0.4000000), wk =   0.0320000
        k(   84) = (   0.2000000   0.4000000  -0.5000000), wk =   0.0160000
        k(   85) = (   0.2000000  -0.5000000   0.0000000), wk =   0.0080000
        k(   86) = (   0.2000000  -0.5000000   0.1000000), wk =   0.0160000
        k(   87) = (   0.2000000  -0.5000000   0.2000000), wk =   0.0160000
        k(   88) = (   0.2000000  -0.5000000   0.3000000), wk =   0.0160000
        k(   89) = (   0.2000000  -0.5000000   0.4000000), wk =   0.0160000
        k(   90) = (   0.2000000  -0.5000000  -0.5000000), wk =   0.0080000
        k(   91) = (   0.3000000   0.3000000   0.0000000), wk =   0.0080000
        k(   92) = (   0.3000000   0.3000000   0.1000000), wk =   0.0160000
        k(   93) = (   0.3000000   0.3000000   0.2000000), wk =   0.0160000
        k(   94) = (   0.3000000   0.3000000   0.3000000), wk =   0.0160000
        k(   95) = (   0.3000000   0.3000000   0.4000000), wk =   0.0160000
        k(   96) = (   0.3000000   0.3000000  -0.5000000), wk =   0.0080000
        k(   97) = (   0.3000000   0.4000000   0.0000000), wk =   0.0160000
        k(   98) = (   0.3000000   0.4000000   0.1000000), wk =   0.0320000
        k(   99) = (   0.3000000   0.4000000   0.2000000), wk =   0.0320000
        k(  100) = (   0.3000000   0.4000000   0.3000000), wk =   0.0320000
        k(  101) = (   0.3000000   0.4000000   0.4000000), wk =   0.0320000
        k(  102) = (   0.3000000   0.4000000  -0.5000000), wk =   0.0160000
        k(  103) = (   0.3000000  -0.5000000   0.0000000), wk =   0.0080000
        k(  104) = (   0.3000000  -0.5000000   0.1000000), wk =   0.0160000
        k(  105) = (   0.3000000  -0.5000000   0.2000000), wk =   0.0160000
        k(  106) = (   0.3000000  -0.5000000   0.3000000), wk =   0.0160000
        k(  107) = (   0.3000000  -0.5000000   0.4000000), wk =   0.0160000
        k(  108) = (   0.3000000  -0.5000000  -0.5000000), wk =   0.0080000
        k(  109) = (   0.4000000   0.4000000   0.0000000), wk =   0.0080000
        k(  110) = (   0.4000000   0.4000000   0.1000000), wk =   0.0160000
        k(  111) = (   0.4000000   0.4000000   0.2000000), wk =   0.0160000
        k(  112) = (   0.4000000   0.4000000   0.3000000), wk =   0.0160000
        k(  113) = (   0.4000000   0.4000000   0.4000000), wk =   0.0160000
        k(  114) = (   0.4000000   0.4000000  -0.5000000), wk =   0.0080000
        k(  115) = (   0.4000000  -0.5000000   0.0000000), wk =   0.0080000
        k(  116) = (   0.4000000  -0.5000000   0.1000000), wk =   0.0160000
        k(  117) = (   0.4000000  -0.5000000   0.2000000), wk =   0.0160000
        k(  118) = (   0.4000000  -0.5000000   0.3000000), wk =   0.0160000
        k(  119) = (   0.4000000  -0.5000000   0.4000000), wk =   0.0160000
        k(  120) = (   0.4000000  -0.5000000  -0.5000000), wk =   0.0080000
        k(  121) = (  -0.5000000  -0.5000000   0.0000000), wk =   0.0020000
        k(  122) = (  -0.5000000  -0.5000000   0.1000000), wk =   0.0040000
        k(  123) = (  -0.5000000  -0.5000000   0.2000000), wk =   0.0040000
        k(  124) = (  -0.5000000  -0.5000000   0.3000000), wk =   0.0040000
        k(  125) = (  -0.5000000  -0.5000000   0.4000000), wk =   0.0040000
        k(  126) = (  -0.5000000  -0.5000000  -0.5000000), wk =   0.0020000

     Dense  grid:   134077 G-vectors     FFT dimensions: (  80,  80,  60)

     Dynamical RAM for                 wfc:       0.38 MB

     Dynamical RAM for     wfc (w. buffer):       1.92 MB

     Dynamical RAM for           str. fact:       0.13 MB

     Dynamical RAM for           local pot:       0.00 MB

     Dynamical RAM for          nlocal pot:       1.02 MB

     Dynamical RAM for                qrad:       0.50 MB

     Dynamical RAM for          rho,v,vnew:       0.97 MB

     Dynamical RAM for               rhoin:       0.32 MB

     Dynamical RAM for            rho*nmix:       2.05 MB

     Dynamical RAM for           G-vectors:       0.54 MB

     Dynamical RAM for          h,s,v(r/c):       0.11 MB

     Dynamical RAM for          <psi|beta>:       0.02 MB

     Dynamical RAM for                 psi:       0.77 MB

     Dynamical RAM for                hpsi:       0.77 MB

     Dynamical RAM for                spsi:       0.77 MB

     Dynamical RAM for      wfcinit/wfcrot:       0.78 MB

     Dynamical RAM for           addusdens:       0.33 MB

     Dynamical RAM for          addusforce:       0.33 MB

     Dynamical RAM for         addusstress:       0.26 MB

     Estimated static dynamical RAM per process >       6.64 MB

     Estimated max dynamical RAM per process >      11.11 MB

     Estimated total dynamical RAM >       4.56 GB

     Atomic positions and unit cell read from directory:
     ./O.save/
     Message from routine qexsd_readschema :
     xml data file ./O.save/data-file-schema.xml not found
     Nothing found: using input atomic positions and unit cell


     Check: negative core charge=   -0.000001
     Cannot read rho : file not found

     Initial potential from superposition of free atoms

     starting charge      48.0000, renormalised to      48.0000


     %%%%%%%%%%%%%%%%%%%%%%%%%%%%%%%%%%%%%%%%%%%%%%%%%%%%%%%%%%%%%%%%%%%%%%%%
     %                                                                      %
     % You are using vdW-DF, which was implemented by the Thonhauser group. %
     % Please cite the following two papers that made this development      %
     % possible and the two reviews that describe the various versions:     %
     %                                                                      %
     %   T. Thonhauser et al., PRL 115, 136402 (2015).                      %
     %   T. Thonhauser et al., PRB 76, 125112 (2007).                       %
     %   K. Berland et al., Rep. Prog. Phys. 78, 066501 (2015).             %
     %   D.C. Langreth et al., J. Phys.: Condens. Matter 21, 084203 (2009). %
     %                                                                      %
     % If you are calculating stress with vdW-DF, please also cite:         %
     %                                                                      %
     %   R. Sabatini et al., J. Phys.: Condens. Matter 24, 424209 (2012).   %
     %                                                                      %
     %%%%%%%%%%%%%%%%%%%%%%%%%%%%%%%%%%%%%%%%%%%%%%%%%%%%%%%%%%%%%%%%%%%%%%%%

     %%%%%%%%%%%%%%%%%%%%%%%%%%%%%%%%%%%%%%%%%%%%%%%%%%%%%%%%%%%%%%%%%%%%%%%%
     %                                                                      %
     %  vdW-DF NEWS:                                                        %
     %                                                                      %
     %  * vdW-DF3 is now available. DOI: 10.1021/acs.jctc.0c00471           %
     %    use with input_dft = 'vdW-DF3-opt1' or 'vdW-DF3-opt2'             %
     %                                                                      %
     %  * Unscreened and range-separated vdW-DF hybrid functionals          %
     %    DOI: 10.1063/1.4986522 and 10.1088/1361-648X/ac2ad2               %
     %    use with input_dft = 'vdW-DF-cx0' (etc) and 'vdW-DF-ahcx'         %
     %                                                                      %
     %%%%%%%%%%%%%%%%%%%%%%%%%%%%%%%%%%%%%%%%%%%%%%%%%%%%%%%%%%%%%%%%%%%%%%%%


     Carrying out vdW-DF run using the following parameters:
     Nqs    =  20  Npoints =  1024  r_max =  100.000
     q_mesh =  0.00001000  0.04494208  0.09755937  0.15916263
               0.23128650  0.31572767  0.41458969  0.53033537
               0.66584808  0.82450364  1.01025438  1.22772762
               1.48234092  1.78043706  2.12944203  2.53805004
               3.01644009  3.57652955  4.23227104  5.00000000


     -----------------------------------------------
     Non-local corr. energy    =       0.71551675 Ry
     -----------------------------------------------

     Message from routine qexsd_readschema :
     xml data file ./O.save/data-file-schema.xml not found
     Cannot read wfcs: file not found
     Starting wfcs are   32 randomized atomic wfcs
     Checking if some PAW data can be deallocated... 

     total cpu time spent up to now is        2.0 secs

     Self-consistent Calculation

     iteration #  1     ecut=   120.00 Ry     beta= 0.70
     Davidson diagonalization with overlap

---- Real-time Memory Report at c_bands before calling an iterative solver
           154 MiB given to the printing process from OS
             0 MiB allocation reported by mallinfo(arena+hblkhd)
       1947425 MiB available memory on the node where the printing process lives
------------------
     ethr =  1.00E-05,  avg # of iterations =  5.0


     -----------------------------------------------
     Non-local corr. energy    =       0.74079329 Ry
     -----------------------------------------------


     total cpu time spent up to now is        3.8 secs

     total energy              =    -338.69418014 Ry
     estimated scf accuracy    <       0.23841118 Ry

     iteration #  2     ecut=   120.00 Ry     beta= 0.70
     Davidson diagonalization with overlap

---- Real-time Memory Report at c_bands before calling an iterative solver
           170 MiB given to the printing process from OS
             0 MiB allocation reported by mallinfo(arena+hblkhd)
       1947089 MiB available memory on the node where the printing process lives
------------------
     ethr =  4.97E-04,  avg # of iterations =  2.0


     -----------------------------------------------
     Non-local corr. energy    =       0.73912524 Ry
     -----------------------------------------------


     total cpu time spent up to now is        4.9 secs

     total energy              =    -338.73979375 Ry
     estimated scf accuracy    <       0.00789244 Ry

     iteration #  3     ecut=   120.00 Ry     beta= 0.70
     Davidson diagonalization with overlap

---- Real-time Memory Report at c_bands before calling an iterative solver
           171 MiB given to the printing process from OS
             0 MiB allocation reported by mallinfo(arena+hblkhd)
       1947070 MiB available memory on the node where the printing process lives
------------------
     ethr =  1.64E-05,  avg # of iterations =  3.0


     -----------------------------------------------
     Non-local corr. energy    =       0.74006435 Ry
     -----------------------------------------------


     total cpu time spent up to now is        6.2 secs

     total energy              =    -338.74192420 Ry
     estimated scf accuracy    <       0.00093407 Ry

     iteration #  4     ecut=   120.00 Ry     beta= 0.70
     Davidson diagonalization with overlap

---- Real-time Memory Report at c_bands before calling an iterative solver
           171 MiB given to the printing process from OS
             0 MiB allocation reported by mallinfo(arena+hblkhd)
       1947120 MiB available memory on the node where the printing process lives
------------------
     ethr =  1.95E-06,  avg # of iterations =  2.5


     -----------------------------------------------
     Non-local corr. energy    =       0.74005799 Ry
     -----------------------------------------------


     total cpu time spent up to now is        7.4 secs

     total energy              =    -338.74207998 Ry
     estimated scf accuracy    <       0.00006383 Ry

     iteration #  5     ecut=   120.00 Ry     beta= 0.70
     Davidson diagonalization with overlap

---- Real-time Memory Report at c_bands before calling an iterative solver
           171 MiB given to the printing process from OS
             0 MiB allocation reported by mallinfo(arena+hblkhd)
       1947049 MiB available memory on the node where the printing process lives
------------------
     ethr =  1.33E-07,  avg # of iterations =  9.6


     -----------------------------------------------
     Non-local corr. energy    =       0.74005772 Ry
     -----------------------------------------------


     total cpu time spent up to now is        8.9 secs

     total energy              =    -338.74221720 Ry
     estimated scf accuracy    <       0.00002111 Ry

     iteration #  6     ecut=   120.00 Ry     beta= 0.70
     Davidson diagonalization with overlap

---- Real-time Memory Report at c_bands before calling an iterative solver
           171 MiB given to the printing process from OS
             0 MiB allocation reported by mallinfo(arena+hblkhd)
       1947041 MiB available memory on the node where the printing process lives
------------------
     c_bands:  1 eigenvalues not converged
     ethr =  4.40E-08,  avg # of iterations =  1.6


     -----------------------------------------------
     Non-local corr. energy    =       0.74015137 Ry
     -----------------------------------------------


     total cpu time spent up to now is       10.0 secs

     total energy              =    -338.74221205 Ry
     estimated scf accuracy    <       0.00002105 Ry

     iteration #  7     ecut=   120.00 Ry     beta= 0.70
     Davidson diagonalization with overlap

---- Real-time Memory Report at c_bands before calling an iterative solver
           172 MiB given to the printing process from OS
             0 MiB allocation reported by mallinfo(arena+hblkhd)
       1947001 MiB available memory on the node where the printing process lives
------------------
     ethr =  4.38E-08,  avg # of iterations =  2.0


     -----------------------------------------------
     Non-local corr. energy    =       0.74012329 Ry
     -----------------------------------------------


     total cpu time spent up to now is       11.2 secs

     total energy              =    -338.74221988 Ry
     estimated scf accuracy    <       0.00001333 Ry

     iteration #  8     ecut=   120.00 Ry     beta= 0.70
     Davidson diagonalization with overlap

---- Real-time Memory Report at c_bands before calling an iterative solver
           172 MiB given to the printing process from OS
             0 MiB allocation reported by mallinfo(arena+hblkhd)
       1947024 MiB available memory on the node where the printing process lives
------------------
     ethr =  2.78E-08,  avg # of iterations =  5.6


     -----------------------------------------------
     Non-local corr. energy    =       0.74011399 Ry
     -----------------------------------------------


     total cpu time spent up to now is       12.6 secs

     total energy              =    -338.74222207 Ry
     estimated scf accuracy    <       0.00002521 Ry

     iteration #  9     ecut=   120.00 Ry     beta= 0.70
     Davidson diagonalization with overlap

---- Real-time Memory Report at c_bands before calling an iterative solver
           173 MiB given to the printing process from OS
             0 MiB allocation reported by mallinfo(arena+hblkhd)
       1946968 MiB available memory on the node where the printing process lives
------------------
     ethr =  2.78E-08,  avg # of iterations =  1.0


     -----------------------------------------------
     Non-local corr. energy    =       0.74009096 Ry
     -----------------------------------------------


     total cpu time spent up to now is       13.7 secs

     total energy              =    -338.74221655 Ry
     estimated scf accuracy    <       0.00002147 Ry

     iteration # 10     ecut=   120.00 Ry     beta= 0.70
     Davidson diagonalization with overlap

---- Real-time Memory Report at c_bands before calling an iterative solver
           174 MiB given to the printing process from OS
             0 MiB allocation reported by mallinfo(arena+hblkhd)
       1946939 MiB available memory on the node where the printing process lives
------------------
     ethr =  2.78E-08,  avg # of iterations =  1.0


     -----------------------------------------------
     Non-local corr. energy    =       0.74000044 Ry
     -----------------------------------------------


     total cpu time spent up to now is       14.7 secs

     total energy              =    -338.74220918 Ry
     estimated scf accuracy    <       0.00001081 Ry

     iteration # 11     ecut=   120.00 Ry     beta= 0.70
     Davidson diagonalization with overlap

---- Real-time Memory Report at c_bands before calling an iterative solver
           174 MiB given to the printing process from OS
             0 MiB allocation reported by mallinfo(arena+hblkhd)
       1946968 MiB available memory on the node where the printing process lives
------------------
     ethr =  2.25E-08,  avg # of iterations =  2.0


     -----------------------------------------------
     Non-local corr. energy    =       0.74002469 Ry
     -----------------------------------------------


     total cpu time spent up to now is       15.9 secs

     total energy              =    -338.74221220 Ry
     estimated scf accuracy    <       0.00000258 Ry

     iteration # 12     ecut=   120.00 Ry     beta= 0.70
     Davidson diagonalization with overlap

---- Real-time Memory Report at c_bands before calling an iterative solver
           174 MiB given to the printing process from OS
             0 MiB allocation reported by mallinfo(arena+hblkhd)
       1946967 MiB available memory on the node where the printing process lives
------------------
     ethr =  5.38E-09,  avg # of iterations =  5.9


     -----------------------------------------------
     Non-local corr. energy    =       0.74002329 Ry
     -----------------------------------------------


     total cpu time spent up to now is       17.1 secs

     total energy              =    -338.74221296 Ry
     estimated scf accuracy    <       0.00000043 Ry

     iteration # 13     ecut=   120.00 Ry     beta= 0.70
     Davidson diagonalization with overlap

---- Real-time Memory Report at c_bands before calling an iterative solver
           174 MiB given to the printing process from OS
             0 MiB allocation reported by mallinfo(arena+hblkhd)
       1946888 MiB available memory on the node where the printing process lives
------------------
     ethr =  8.96E-10,  avg # of iterations =  5.9


     -----------------------------------------------
     Non-local corr. energy    =       0.74002182 Ry
     -----------------------------------------------


     total cpu time spent up to now is       18.4 secs

     total energy              =    -338.74221326 Ry
     estimated scf accuracy    <       0.00000045 Ry

     iteration # 14     ecut=   120.00 Ry     beta= 0.70
     Davidson diagonalization with overlap

---- Real-time Memory Report at c_bands before calling an iterative solver
           174 MiB given to the printing process from OS
             0 MiB allocation reported by mallinfo(arena+hblkhd)
       1946916 MiB available memory on the node where the printing process lives
------------------
     ethr =  8.96E-10,  avg # of iterations =  1.0


     -----------------------------------------------
     Non-local corr. energy    =       0.74002480 Ry
     -----------------------------------------------


     total cpu time spent up to now is       19.4 secs

     total energy              =    -338.74221317 Ry
     estimated scf accuracy    <       0.00000051 Ry

     iteration # 15     ecut=   120.00 Ry     beta= 0.70
     Davidson diagonalization with overlap

---- Real-time Memory Report at c_bands before calling an iterative solver
           174 MiB given to the printing process from OS
             0 MiB allocation reported by mallinfo(arena+hblkhd)
       1946850 MiB available memory on the node where the printing process lives
------------------
     ethr =  8.96E-10,  avg # of iterations =  1.0


     -----------------------------------------------
     Non-local corr. energy    =       0.74002558 Ry
     -----------------------------------------------


     total cpu time spent up to now is       20.6 secs

     total energy              =    -338.74221309 Ry
     estimated scf accuracy    <       0.00000038 Ry

     iteration # 16     ecut=   120.00 Ry     beta= 0.70
     Davidson diagonalization with overlap

---- Real-time Memory Report at c_bands before calling an iterative solver
           174 MiB given to the printing process from OS
             0 MiB allocation reported by mallinfo(arena+hblkhd)
       1946893 MiB available memory on the node where the printing process lives
------------------
     ethr =  7.90E-10,  avg # of iterations =  1.0


     -----------------------------------------------
     Non-local corr. energy    =       0.74002379 Ry
     -----------------------------------------------


     total cpu time spent up to now is       21.7 secs

     total energy              =    -338.74221318 Ry
     estimated scf accuracy    <       0.00000021 Ry

     iteration # 17     ecut=   120.00 Ry     beta= 0.70
     Davidson diagonalization with overlap

---- Real-time Memory Report at c_bands before calling an iterative solver
           175 MiB given to the printing process from OS
             0 MiB allocation reported by mallinfo(arena+hblkhd)
       1946890 MiB available memory on the node where the printing process lives
------------------
     ethr =  4.47E-10,  avg # of iterations =  1.2


     -----------------------------------------------
     Non-local corr. energy    =       0.74003554 Ry
     -----------------------------------------------


     total cpu time spent up to now is       22.8 secs

     total energy              =    -338.74221290 Ry
     estimated scf accuracy    <       0.00000037 Ry

     iteration # 18     ecut=   120.00 Ry     beta= 0.70
     Davidson diagonalization with overlap

---- Real-time Memory Report at c_bands before calling an iterative solver
           175 MiB given to the printing process from OS
             0 MiB allocation reported by mallinfo(arena+hblkhd)
       1946838 MiB available memory on the node where the printing process lives
------------------
     ethr =  4.47E-10,  avg # of iterations =  3.2


     -----------------------------------------------
     Non-local corr. energy    =       0.74003250 Ry
     -----------------------------------------------


     total cpu time spent up to now is       24.0 secs

     total energy              =    -338.74221300 Ry
     estimated scf accuracy    <       0.00000014 Ry

     iteration # 19     ecut=   120.00 Ry     beta= 0.70
     Davidson diagonalization with overlap

---- Real-time Memory Report at c_bands before calling an iterative solver
           175 MiB given to the printing process from OS
             0 MiB allocation reported by mallinfo(arena+hblkhd)
       1946865 MiB available memory on the node where the printing process lives
------------------
     ethr =  2.89E-10,  avg # of iterations =  1.3


     -----------------------------------------------
     Non-local corr. energy    =       0.74003186 Ry
     -----------------------------------------------


     total cpu time spent up to now is       25.1 secs

     total energy              =    -338.74221300 Ry
     estimated scf accuracy    <       0.00000006 Ry

     iteration # 20     ecut=   120.00 Ry     beta= 0.70
     Davidson diagonalization with overlap

---- Real-time Memory Report at c_bands before calling an iterative solver
           175 MiB given to the printing process from OS
             0 MiB allocation reported by mallinfo(arena+hblkhd)
       1946799 MiB available memory on the node where the printing process lives
------------------
     ethr =  1.23E-10,  avg # of iterations =  6.0


     -----------------------------------------------
     Non-local corr. energy    =       0.74003261 Ry
     -----------------------------------------------


     total cpu time spent up to now is       26.4 secs

     total energy              =    -338.74221301 Ry
     estimated scf accuracy    <       0.00000012 Ry

     iteration # 21     ecut=   120.00 Ry     beta= 0.70
     Davidson diagonalization with overlap

---- Real-time Memory Report at c_bands before calling an iterative solver
           175 MiB given to the printing process from OS
             0 MiB allocation reported by mallinfo(arena+hblkhd)
       1946764 MiB available memory on the node where the printing process lives
------------------
     ethr =  1.23E-10,  avg # of iterations =  1.1


     -----------------------------------------------
     Non-local corr. energy    =       0.74003143 Ry
     -----------------------------------------------


     total cpu time spent up to now is       27.4 secs

     total energy              =    -338.74221296 Ry
     estimated scf accuracy    <       0.00000009 Ry

     iteration # 22     ecut=   120.00 Ry     beta= 0.70
     Davidson diagonalization with overlap

---- Real-time Memory Report at c_bands before calling an iterative solver
           175 MiB given to the printing process from OS
             0 MiB allocation reported by mallinfo(arena+hblkhd)
       1946775 MiB available memory on the node where the printing process lives
------------------
     ethr =  1.23E-10,  avg # of iterations =  7.0


     -----------------------------------------------
     Non-local corr. energy    =       0.74003266 Ry
     -----------------------------------------------


     total cpu time spent up to now is       28.7 secs

     total energy              =    -338.74221298 Ry
     estimated scf accuracy    <       0.00000006 Ry

     iteration # 23     ecut=   120.00 Ry     beta= 0.70
     Davidson diagonalization with overlap

---- Real-time Memory Report at c_bands before calling an iterative solver
           175 MiB given to the printing process from OS
             0 MiB allocation reported by mallinfo(arena+hblkhd)
       1946761 MiB available memory on the node where the printing process lives
------------------
     ethr =  1.23E-10,  avg # of iterations =  1.0


     -----------------------------------------------
     Non-local corr. energy    =       0.74003232 Ry
     -----------------------------------------------


     total cpu time spent up to now is       29.8 secs

     total energy              =    -338.74221298 Ry
     estimated scf accuracy    <       0.00000003 Ry

     iteration # 24     ecut=   120.00 Ry     beta= 0.70
     Davidson diagonalization with overlap

---- Real-time Memory Report at c_bands before calling an iterative solver
           175 MiB given to the printing process from OS
             0 MiB allocation reported by mallinfo(arena+hblkhd)
       1946751 MiB available memory on the node where the printing process lives
------------------
     ethr =  6.09E-11,  avg # of iterations =  1.0


     -----------------------------------------------
     Non-local corr. energy    =       0.74003230 Ry
     -----------------------------------------------


     total cpu time spent up to now is       30.9 secs

     total energy              =    -338.74221298 Ry
     estimated scf accuracy    <       0.00000003 Ry

     iteration # 25     ecut=   120.00 Ry     beta= 0.70
     Davidson diagonalization with overlap

---- Real-time Memory Report at c_bands before calling an iterative solver
           176 MiB given to the printing process from OS
             0 MiB allocation reported by mallinfo(arena+hblkhd)
       1946759 MiB available memory on the node where the printing process lives
------------------
     ethr =  6.08E-11,  avg # of iterations =  1.0


     -----------------------------------------------
     Non-local corr. energy    =       0.74003222 Ry
     -----------------------------------------------


     total cpu time spent up to now is       32.0 secs

     total energy              =    -338.74221298 Ry
     estimated scf accuracy    <       0.00000003 Ry

     iteration # 26     ecut=   120.00 Ry     beta= 0.70
     Davidson diagonalization with overlap

---- Real-time Memory Report at c_bands before calling an iterative solver
           176 MiB given to the printing process from OS
             0 MiB allocation reported by mallinfo(arena+hblkhd)
       1946747 MiB available memory on the node where the printing process lives
------------------
     ethr =  5.68E-11,  avg # of iterations =  1.0


     -----------------------------------------------
     Non-local corr. energy    =       0.74003221 Ry
     -----------------------------------------------


     total cpu time spent up to now is       33.0 secs

     total energy              =    -338.74221298 Ry
     estimated scf accuracy    <       0.00000003 Ry

     iteration # 27     ecut=   120.00 Ry     beta= 0.70
     Davidson diagonalization with overlap

---- Real-time Memory Report at c_bands before calling an iterative solver
           176 MiB given to the printing process from OS
             0 MiB allocation reported by mallinfo(arena+hblkhd)
       1946741 MiB available memory on the node where the printing process lives
------------------
     ethr =  5.45E-11,  avg # of iterations =  1.0


     -----------------------------------------------
     Non-local corr. energy    =       0.74003221 Ry
     -----------------------------------------------


     total cpu time spent up to now is       34.1 secs

     total energy              =    -338.74221298 Ry
     estimated scf accuracy    <       0.00000002 Ry

     iteration # 28     ecut=   120.00 Ry     beta= 0.70
     Davidson diagonalization with overlap

---- Real-time Memory Report at c_bands before calling an iterative solver
           176 MiB given to the printing process from OS
             0 MiB allocation reported by mallinfo(arena+hblkhd)
       1946743 MiB available memory on the node where the printing process lives
------------------
     ethr =  5.07E-11,  avg # of iterations =  1.0


     -----------------------------------------------
     Non-local corr. energy    =       0.74003184 Ry
     -----------------------------------------------


     total cpu time spent up to now is       35.1 secs

     total energy              =    -338.74221297 Ry
     estimated scf accuracy    <       0.00000002 Ry

     iteration # 29     ecut=   120.00 Ry     beta= 0.70
     Davidson diagonalization with overlap

---- Real-time Memory Report at c_bands before calling an iterative solver
           176 MiB given to the printing process from OS
             0 MiB allocation reported by mallinfo(arena+hblkhd)
       1946732 MiB available memory on the node where the printing process lives
------------------
     ethr =  4.99E-11,  avg # of iterations =  5.3


     -----------------------------------------------
     Non-local corr. energy    =       0.74003190 Ry
     -----------------------------------------------


     total cpu time spent up to now is       36.4 secs

     End of self-consistent calculation

          k = 0.0000 0.0000 0.0000 ( 16777 PWs)   bands (ev):

   -26.0059 -25.7516 -25.7516 -25.6447 -14.1711 -13.5699 -13.5699 -12.6621
    -7.8440  -7.2306  -6.8715  -6.8715  -6.0128  -6.0128  -5.9277  -5.8490
    -5.7957  -5.6426  -5.3649  -5.3649  -0.0091  -0.0091   0.3966   0.4573

     occupation numbers 
     1.0000   1.0000   1.0000   1.0000   1.0000   1.0000   1.0000   1.0000
     1.0000   1.0000   1.0000   1.0000   1.0000   1.0000   1.0000   1.0000
     1.0000   1.0000   1.0000   1.0000   1.0000   1.0000   1.0000   1.0000

          k = 0.0000 0.0000 0.1488 ( 16781 PWs)   bands (ev):

   -25.9987 -25.7731 -25.7293 -25.6439 -14.1719 -13.7004 -13.4454 -12.6831
    -7.8344  -7.2009  -6.8980  -6.8799  -6.0397  -6.0165  -5.9512  -5.9047
    -5.7757  -5.6226  -5.4248  -5.3277  -0.0196   0.0378   0.3854   0.5010

     occupation numbers 
     1.0000   1.0000   1.0000   1.0000   1.0000   1.0000   1.0000   1.0000
     1.0000   1.0000   1.0000   1.0000   1.0000   1.0000   1.0000   1.0000
     1.0000   1.0000   1.0000   1.0000   1.0000   1.0000   1.0000   1.0000

          k = 0.0000 0.0000 0.2977 ( 16736 PWs)   bands (ev):

   -25.9784 -25.7947 -25.7064 -25.6421 -14.1724 -13.8289 -13.3309 -12.7418
    -7.8004  -7.1166  -6.9760  -6.8965  -6.0839  -6.0597  -6.0375  -5.9945
    -5.7418  -5.5830  -5.4895  -5.3214  -0.0093   0.1244   0.3430   0.5837

     occupation numbers 
     1.0000   1.0000   1.0000   1.0000   1.0000   1.0000   1.0000   1.0000
     1.0000   1.0000   1.0000   1.0000   1.0000   1.0000   1.0000   1.0000
     1.0000   1.0000   1.0000   1.0000   1.0000   1.0000   1.0000   1.0000

          k = 0.0000 0.0000 0.4465 ( 16724 PWs)   bands (ev):

   -25.9485 -25.8185 -25.6844 -25.6414 -14.1674 -13.9454 -13.2257 -12.8269
    -7.7303  -7.1084  -6.9945  -6.8938  -6.1996  -6.1461  -6.1221  -6.0375
    -5.7110  -5.5470  -5.5363  -5.3420   0.0156   0.2378   0.2769   0.6000

     occupation numbers 
     1.0000   1.0000   1.0000   1.0000   1.0000   1.0000   1.0000   1.0000
     1.0000   1.0000   1.0000   1.0000   1.0000   1.0000   1.0000   1.0000
     1.0000   1.0000   1.0000   1.0000   1.0000   1.0000   1.0000   1.0000

          k = 0.0000 0.0000 0.5953 ( 16736 PWs)   bands (ev):

   -25.9136 -25.8462 -25.6656 -25.6440 -14.1487 -14.0404 -13.1257 -12.9251
    -7.6154  -7.2796  -6.8729  -6.8602  -6.3336  -6.2621  -6.1330  -6.0787
    -5.6793  -5.5970  -5.4843  -5.3809   0.0593   0.1991   0.3602   0.5613

     occupation numbers 
     1.0000   1.0000   1.0000   1.0000   1.0000   1.0000   1.0000   1.0000
     1.0000   1.0000   1.0000   1.0000   1.0000   1.0000   1.0000   1.0000
     1.0000   1.0000   1.0000   1.0000   1.0000   1.0000   1.0000   1.0000

          k = 0.0000 0.0000-0.7441 ( 16744 PWs)   bands (ev):

   -25.8784 -25.8784 -25.6519 -25.6519 -14.1082 -14.1082 -13.0261 -13.0261
    -7.4589  -7.4589  -6.8258  -6.8258  -6.3563  -6.3563  -6.1145  -6.1145
    -5.6414  -5.6414  -5.4306  -5.4306   0.1227   0.1227   0.4744   0.4744

     occupation numbers 
     1.0000   1.0000   1.0000   1.0000   1.0000   1.0000   1.0000   1.0000
     1.0000   1.0000   1.0000   1.0000   1.0000   1.0000   1.0000   1.0000
     1.0000   1.0000   1.0000   1.0000   1.0000   1.0000   1.0000   1.0000

          k = 0.0000 0.1000 0.0000 ( 16769 PWs)   bands (ev):

   -26.0003 -25.7591 -25.7486 -25.6463 -14.1584 -13.5868 -13.5485 -12.6857
    -7.8241  -7.2313  -6.8782  -6.8564  -6.0658  -6.0253  -5.9212  -5.8490
    -5.7533  -5.6403  -5.3685  -5.3677  -0.0211  -0.0076   0.3972   0.3984

     occupation numbers 
     1.0000   1.0000   1.0000   1.0000   1.0000   1.0000   1.0000   1.0000
     1.0000   1.0000   1.0000   1.0000   1.0000   1.0000   1.0000   1.0000
     1.0000   1.0000   1.0000   1.0000   1.0000   1.0000   1.0000   1.0000

          k = 0.0000 0.1000 0.1488 ( 16739 PWs)   bands (ev):

   -25.9932 -25.7751 -25.7315 -25.6456 -14.1593 -13.6964 -13.4455 -12.7064
    -7.8147  -7.2030  -6.8963  -6.8714  -6.0809  -6.0393  -5.9351  -5.8977
    -5.7472  -5.6250  -5.4248  -5.3332  -0.0217   0.0307   0.3553   0.4758

     occupation numbers 
     1.0000   1.0000   1.0000   1.0000   1.0000   1.0000   1.0000   1.0000
     1.0000   1.0000   1.0000   1.0000   1.0000   1.0000   1.0000   1.0000
     1.0000   1.0000   1.0000   1.0000   1.0000   1.0000   1.0000   1.0000

          k = 0.0000 0.1000 0.2977 ( 16727 PWs)   bands (ev):

   -25.9733 -25.7955 -25.7093 -25.6440 -14.1601 -13.8216 -13.3357 -12.7641
    -7.7810  -7.1238  -6.9655  -6.8915  -6.1226  -6.0831  -6.0244  -5.9597
    -5.7320  -5.5961  -5.4840  -5.3286  -0.0074   0.1142   0.3161   0.5676

     occupation numbers 
     1.0000   1.0000   1.0000   1.0000   1.0000   1.0000   1.0000   1.0000
     1.0000   1.0000   1.0000   1.0000   1.0000   1.0000   1.0000   1.0000
     1.0000   1.0000   1.0000   1.0000   1.0000   1.0000   1.0000   1.0000

          k = 0.0000 0.1000 0.4465 ( 16740 PWs)   bands (ev):

   -25.9440 -25.8180 -25.6875 -25.6436 -14.1553 -13.9360 -13.2346 -12.8476
    -7.7115  -7.0974  -7.0066  -6.8854  -6.2220  -6.1497  -6.1226  -6.0054
    -5.7112  -5.5785  -5.5174  -5.3505   0.0180   0.2093   0.2781   0.5886

     occupation numbers 
     1.0000   1.0000   1.0000   1.0000   1.0000   1.0000   1.0000   1.0000
     1.0000   1.0000   1.0000   1.0000   1.0000   1.0000   1.0000   1.0000
     1.0000   1.0000   1.0000   1.0000   1.0000   1.0000   1.0000   1.0000

          k = 0.0000 0.1000 0.5953 ( 16770 PWs)   bands (ev):

   -25.9100 -25.8446 -25.6687 -25.6465 -14.1370 -14.0298 -13.1384 -12.9437
    -7.5973  -7.2644  -6.8991  -6.8465  -6.3406  -6.2658  -6.1266  -6.0545
    -5.6835  -5.6082  -5.4885  -5.3903   0.0583   0.1809   0.3597   0.5523

     occupation numbers 
     1.0000   1.0000   1.0000   1.0000   1.0000   1.0000   1.0000   1.0000
     1.0000   1.0000   1.0000   1.0000   1.0000   1.0000   1.0000   1.0000
     1.0000   1.0000   1.0000   1.0000   1.0000   1.0000   1.0000   1.0000

          k = 0.0000 0.1000-0.7441 ( 16754 PWs)   bands (ev):

   -25.8757 -25.8757 -25.6547 -25.6547 -14.0969 -14.0969 -13.0420 -13.0420
    -7.4419  -7.4419  -6.8348  -6.8348  -6.3579  -6.3579  -6.0992  -6.0992
    -5.6482  -5.6482  -5.4393  -5.4393   0.1152   0.1152   0.4688   0.4688

     occupation numbers 
     1.0000   1.0000   1.0000   1.0000   1.0000   1.0000   1.0000   1.0000
     1.0000   1.0000   1.0000   1.0000   1.0000   1.0000   1.0000   1.0000
     1.0000   1.0000   1.0000   1.0000   1.0000   1.0000   1.0000   1.0000

          k = 0.0000 0.2000 0.0000 ( 16748 PWs)   bands (ev):

   -25.9839 -25.7800 -25.7400 -25.6517 -14.1211 -13.6352 -13.4865 -12.7539
    -7.7670  -7.2415  -6.8887  -6.8171  -6.1636  -6.0604  -5.9081  -5.8524
    -5.6783  -5.6295  -5.3798  -5.3762  -0.0482  -0.0039   0.2900   0.3878

     occupation numbers 
     1.0000   1.0000   1.0000   1.0000   1.0000   1.0000   1.0000   1.0000
     1.0000   1.0000   1.0000   1.0000   1.0000   1.0000   1.0000   1.0000
     1.0000   1.0000   1.0000   1.0000   1.0000   1.0000   1.0000   1.0000

          k = 0.0000 0.2000 0.1488 ( 16733 PWs)   bands (ev):

   -25.9773 -25.7866 -25.7317 -25.6511 -14.1223 -13.7004 -13.4293 -12.7734
    -7.7580  -7.2181  -6.9001  -6.8326  -6.1701  -6.0713  -5.9250  -5.8867
    -5.6852  -5.6254  -5.4268  -5.3499  -0.0330   0.0221   0.2752   0.4367

     occupation numbers 
     1.0000   1.0000   1.0000   1.0000   1.0000   1.0000   1.0000   1.0000
     1.0000   1.0000   1.0000   1.0000   1.0000   1.0000   1.0000   1.0000
     1.0000   1.0000   1.0000   1.0000   1.0000   1.0000   1.0000   1.0000

          k = 0.0000 0.2000 0.2977 ( 16722 PWs)   bands (ev):

   -25.9585 -25.8005 -25.7142 -25.6500 -14.1240 -13.8083 -13.3408 -12.8278
    -7.7256  -7.1545  -6.9404  -6.8647  -6.1984  -6.1016  -6.0124  -5.9263
    -5.6984  -5.6196  -5.4775  -5.3504  -0.0037   0.0923   0.2566   0.5182

     occupation numbers 
     1.0000   1.0000   1.0000   1.0000   1.0000   1.0000   1.0000   1.0000
     1.0000   1.0000   1.0000   1.0000   1.0000   1.0000   1.0000   1.0000
     1.0000   1.0000   1.0000   1.0000   1.0000   1.0000   1.0000   1.0000

          k = 0.0000 0.2000 0.4465 ( 16740 PWs)   bands (ev):

   -25.9311 -25.8183 -25.6946 -25.6503 -14.1204 -13.9136 -13.2548 -12.9061
    -7.6576  -7.0937  -7.0184  -6.8609  -6.2747  -6.1345  -6.1202  -5.9638
    -5.7033  -5.6192  -5.5089  -5.3760   0.0251   0.1580   0.2650   0.5491

     occupation numbers 
     1.0000   1.0000   1.0000   1.0000   1.0000   1.0000   1.0000   1.0000
     1.0000   1.0000   1.0000   1.0000   1.0000   1.0000   1.0000   1.0000
     1.0000   1.0000   1.0000   1.0000   1.0000   1.0000   1.0000   1.0000

          k = 0.0000 0.2000 0.5953 ( 16763 PWs)   bands (ev):

   -25.8995 -25.8408 -25.6765 -25.6539 -14.1036 -14.0019 -13.1710 -12.9953
    -7.5457  -7.2232  -6.9497  -6.8372  -6.3589  -6.2539  -6.1065  -6.0122
    -5.6913  -5.6369  -5.5015  -5.4176   0.0580   0.1431   0.3498   0.5211

     occupation numbers 
     1.0000   1.0000   1.0000   1.0000   1.0000   1.0000   1.0000   1.0000
     1.0000   1.0000   1.0000   1.0000   1.0000   1.0000   1.0000   1.0000
     1.0000   1.0000   1.0000   1.0000   1.0000   1.0000   1.0000   1.0000

          k = 0.0000 0.2000-0.7441 ( 16766 PWs)   bands (ev):

   -25.8683 -25.8683 -25.6626 -25.6626 -14.0656 -14.0656 -13.0850 -13.0850
    -7.3938  -7.3938  -6.8657  -6.8657  -6.3508  -6.3508  -6.0647  -6.0647
    -5.6660  -5.6660  -5.4641  -5.4641   0.0996   0.0996   0.4478   0.4478

     occupation numbers 
     1.0000   1.0000   1.0000   1.0000   1.0000   1.0000   1.0000   1.0000
     1.0000   1.0000   1.0000   1.0000   1.0000   1.0000   1.0000   1.0000
     1.0000   1.0000   1.0000   1.0000   1.0000   1.0000   1.0000   1.0000

          k = 0.0000 0.3000 0.0000 ( 16718 PWs)   bands (ev):

   -25.9581 -25.8109 -25.7266 -25.6615 -14.0613 -13.7086 -13.3896 -12.8584
    -7.6799  -7.2803  -6.8806  -6.7730  -6.2505  -6.1168  -5.8955  -5.8585
    -5.6097  -5.6056  -5.3991  -5.3911  -0.0723  -0.0058   0.2084   0.3515

     occupation numbers 
     1.0000   1.0000   1.0000   1.0000   1.0000   1.0000   1.0000   1.0000
     1.0000   1.0000   1.0000   1.0000   1.0000   1.0000   1.0000   1.0000
     1.0000   1.0000   1.0000   1.0000   1.0000   1.0000   1.0000   1.0000

          k = 0.0000 0.3000 0.1488 ( 16741 PWs)   bands (ev):

   -25.9521 -25.8119 -25.7231 -25.6611 -14.0633 -13.7399 -13.3684 -12.8759
    -7.6716  -7.2645  -6.8850  -6.7851  -6.2504  -6.1240  -5.9177  -5.8838
    -5.6207  -5.6111  -5.4346  -5.3770  -0.0506   0.0165   0.2070   0.3848

     occupation numbers 
     1.0000   1.0000   1.0000   1.0000   1.0000   1.0000   1.0000   1.0000
     1.0000   1.0000   1.0000   1.0000   1.0000   1.0000   1.0000   1.0000
     1.0000   1.0000   1.0000   1.0000   1.0000   1.0000   1.0000   1.0000

          k = 0.0000 0.3000 0.2977 ( 16750 PWs)   bands (ev):

   -25.9353 -25.8155 -25.7135 -25.6604 -14.0670 -13.8121 -13.3215 -12.9241
    -7.6411  -7.2202  -6.9018  -6.8183  -6.2629  -6.1400  -5.9991  -5.9181
    -5.6458  -5.6282  -5.4804  -5.3862  -0.0043   0.0695   0.2125   0.4474

     occupation numbers 
     1.0000   1.0000   1.0000   1.0000   1.0000   1.0000   1.0000   1.0000
     1.0000   1.0000   1.0000   1.0000   1.0000   1.0000   1.0000   1.0000
     1.0000   1.0000   1.0000   1.0000   1.0000   1.0000   1.0000   1.0000

          k = 0.0000 0.3000 0.4465 ( 16733 PWs)   bands (ev):

   -25.9111 -25.8236 -25.6998 -25.6611 -14.0668 -13.8949 -13.2669 -12.9926
    -7.5758  -7.1583  -6.9748  -6.8309  -6.3157  -6.1380  -6.1011  -5.9504
    -5.6722  -5.6474  -5.5163  -5.4174   0.0347   0.1104   0.2524   0.4806

     occupation numbers 
     1.0000   1.0000   1.0000   1.0000   1.0000   1.0000   1.0000   1.0000
     1.0000   1.0000   1.0000   1.0000   1.0000   1.0000   1.0000   1.0000
     1.0000   1.0000   1.0000   1.0000   1.0000   1.0000   1.0000   1.0000

          k = 0.0000 0.3000 0.5953 ( 16760 PWs)   bands (ev):

   -25.8839 -25.8378 -25.6854 -25.6649 -14.0546 -13.9688 -13.2079 -13.0687
    -7.4678  -7.1739  -7.0115  -6.8482  -6.3583  -6.2219  -6.0893  -5.9888
    -5.6862  -5.6652  -5.5254  -5.4605   0.0623   0.1092   0.3318   0.4666

     occupation numbers 
     1.0000   1.0000   1.0000   1.0000   1.0000   1.0000   1.0000   1.0000
     1.0000   1.0000   1.0000   1.0000   1.0000   1.0000   1.0000   1.0000
     1.0000   1.0000   1.0000   1.0000   1.0000   1.0000   1.0000   1.0000

          k = 0.0000 0.3000-0.7441 ( 16742 PWs)   bands (ev):

   -25.8584 -25.8584 -25.6731 -25.6731 -14.0231 -14.0231 -13.1420 -13.1420
    -7.3228  -7.3228  -6.9224  -6.9224  -6.3188  -6.3188  -6.0377  -6.0377
    -5.6816  -5.6816  -5.5021  -5.5021   0.0877   0.0877   0.4118   0.4118

     occupation numbers 
     1.0000   1.0000   1.0000   1.0000   1.0000   1.0000   1.0000   1.0000
     1.0000   1.0000   1.0000   1.0000   1.0000   1.0000   1.0000   1.0000
     1.0000   1.0000   1.0000   1.0000   1.0000   1.0000   1.0000   1.0000

          k = 0.0000 0.4000 0.0000 ( 16742 PWs)   bands (ev):

   -25.9249 -25.8479 -25.7101 -25.6755 -13.9830 -13.7978 -13.2665 -12.9877
    -7.5732  -7.3570  -6.8425  -6.7580  -6.2872  -6.1885  -5.8847  -5.8662
    -5.5725  -5.5607  -5.4209  -5.4110  -0.0793  -0.0301   0.1915   0.2920

     occupation numbers 
     1.0000   1.0000   1.0000   1.0000   1.0000   1.0000   1.0000   1.0000
     1.0000   1.0000   1.0000   1.0000   1.0000   1.0000   1.0000   1.0000
     1.0000   1.0000   1.0000   1.0000   1.0000   1.0000   1.0000   1.0000

          k = 0.0000 0.4000 0.1488 ( 16730 PWs)   bands (ev):

   -25.9199 -25.8459 -25.7086 -25.6751 -13.9866 -13.8123 -13.2644 -13.0016
    -7.5658  -7.3471  -6.8422  -6.7638  -6.2862  -6.1928  -5.9091  -5.8895
    -5.5828  -5.5701  -5.4460  -5.4110  -0.0566  -0.0088   0.2004   0.3160

     occupation numbers 
     1.0000   1.0000   1.0000   1.0000   1.0000   1.0000   1.0000   1.0000
     1.0000   1.0000   1.0000   1.0000   1.0000   1.0000   1.0000   1.0000
     1.0000   1.0000   1.0000   1.0000   1.0000   1.0000   1.0000   1.0000

          k = 0.0000 0.4000 0.2977 ( 16730 PWs)   bands (ev):

   -25.9059 -25.8414 -25.7043 -25.6743 -13.9951 -13.8510 -13.2582 -13.0395
    -7.5373  -7.3150  -6.8500  -6.7879  -6.2905  -6.2009  -5.9797  -5.9305
    -5.6107  -5.5953  -5.4901  -5.4320  -0.0048   0.0377   0.2248   0.3641

     occupation numbers 
     1.0000   1.0000   1.0000   1.0000   1.0000   1.0000   1.0000   1.0000
     1.0000   1.0000   1.0000   1.0000   1.0000   1.0000   1.0000   1.0000
     1.0000   1.0000   1.0000   1.0000   1.0000   1.0000   1.0000   1.0000

          k = 0.0000 0.4000 0.4465 ( 16759 PWs)   bands (ev):

   -25.8864 -25.8380 -25.6977 -25.6746 -14.0027 -13.9014 -13.2464 -13.0917
    -7.4753  -7.2560  -6.9121  -6.8227  -6.3147  -6.1920  -6.0561  -5.9674
    -5.6447  -5.6273  -5.5341  -5.4698   0.0426   0.0755   0.2682   0.3981

     occupation numbers 
     1.0000   1.0000   1.0000   1.0000   1.0000   1.0000   1.0000   1.0000
     1.0000   1.0000   1.0000   1.0000   1.0000   1.0000   1.0000   1.0000
     1.0000   1.0000   1.0000   1.0000   1.0000   1.0000   1.0000   1.0000

          k = 0.0000 0.4000 0.5953 ( 16753 PWs)   bands (ev):

   -25.8660 -25.8398 -25.6900 -25.6772 -14.0014 -13.9496 -13.2255 -13.1459
    -7.3728  -7.1845  -7.0195  -6.8910  -6.3164  -6.2039  -6.0813  -6.0017
    -5.6684  -5.6565  -5.5580  -5.5132   0.0700   0.0886   0.3254   0.4023

     occupation numbers 
     1.0000   1.0000   1.0000   1.0000   1.0000   1.0000   1.0000   1.0000
     1.0000   1.0000   1.0000   1.0000   1.0000   1.0000   1.0000   1.0000
     1.0000   1.0000   1.0000   1.0000   1.0000   1.0000   1.0000   1.0000

          k = 0.0000 0.4000-0.7441 ( 16768 PWs)   bands (ev):

   -25.8494 -25.8494 -25.6826 -25.6826 -13.9845 -13.9845 -13.1922 -13.1922
    -7.2424  -7.2424  -6.9959  -6.9959  -6.2671  -6.2671  -6.0435  -6.0435
    -5.6727  -5.6727  -5.5483  -5.5483   0.0842   0.0842   0.3756   0.3756

     occupation numbers 
     1.0000   1.0000   1.0000   1.0000   1.0000   1.0000   1.0000   1.0000
     1.0000   1.0000   1.0000   1.0000   1.0000   1.0000   1.0000   1.0000
     1.0000   1.0000   1.0000   1.0000   1.0000   1.0000   1.0000   1.0000

          k = 0.0000-0.5000 0.0000 ( 16748 PWs)   bands (ev):

   -25.8871 -25.8871 -25.6924 -25.6924 -13.8925 -13.8925 -13.1282 -13.1282
    -7.4604  -7.4604  -6.7902  -6.7902  -6.2568  -6.2568  -5.8751  -5.8751
    -5.5481  -5.5481  -5.4272  -5.4272  -0.0631  -0.0631   0.2302   0.2302

     occupation numbers 
     1.0000   1.0000   1.0000   1.0000   1.0000   1.0000   1.0000   1.0000
     1.0000   1.0000   1.0000   1.0000   1.0000   1.0000   1.0000   1.0000
     1.0000   1.0000   1.0000   1.0000   1.0000   1.0000   1.0000   1.0000

          k = 0.0000-0.5000 0.1488 ( 16710 PWs)   bands (ev):

   -25.8833 -25.8833 -25.6917 -25.6917 -13.8995 -13.8995 -13.1363 -13.1363
    -7.4529  -7.4529  -6.7904  -6.7904  -6.2585  -6.2585  -5.8992  -5.8992
    -5.5578  -5.5578  -5.4408  -5.4408  -0.0413  -0.0413   0.2470   0.2470

     occupation numbers 
     1.0000   1.0000   1.0000   1.0000   1.0000   1.0000   1.0000   1.0000
     1.0000   1.0000   1.0000   1.0000   1.0000   1.0000   1.0000   1.0000
     1.0000   1.0000   1.0000   1.0000   1.0000   1.0000   1.0000   1.0000

          k = 0.0000-0.5000 0.2977 ( 16740 PWs)   bands (ev):

   -25.8732 -25.8732 -25.6899 -25.6899 -13.9180 -13.9180 -13.1575 -13.1575
    -7.4249  -7.4249  -6.8023  -6.8023  -6.2632  -6.2632  -5.9546  -5.9546
    -5.5845  -5.5845  -5.4762  -5.4762   0.0082   0.0082   0.2837   0.2837

     occupation numbers 
     1.0000   1.0000   1.0000   1.0000   1.0000   1.0000   1.0000   1.0000
     1.0000   1.0000   1.0000   1.0000   1.0000   1.0000   1.0000   1.0000
     1.0000   1.0000   1.0000   1.0000   1.0000   1.0000   1.0000   1.0000

          k = 0.0000-0.5000 0.4465 ( 16760 PWs)   bands (ev):

   -25.8605 -25.8605 -25.6881 -25.6881 -13.9415 -13.9415 -13.1835 -13.1835
    -7.3655  -7.3655  -6.8542  -6.8542  -6.2638  -6.2638  -6.0073  -6.0073
    -5.6192  -5.6192  -5.5211  -5.5211   0.0535   0.0535   0.3211   0.3211

     occupation numbers 
     1.0000   1.0000   1.0000   1.0000   1.0000   1.0000   1.0000   1.0000
     1.0000   1.0000   1.0000   1.0000   1.0000   1.0000   1.0000   1.0000
     1.0000   1.0000   1.0000   1.0000   1.0000   1.0000   1.0000   1.0000

          k = 0.0000-0.5000 0.5953 ( 16758 PWs)   bands (ev):

   -25.8498 -25.8498 -25.6869 -25.6869 -13.9609 -13.9609 -13.2046 -13.2046
    -7.2717  -7.2717  -6.9572  -6.9572  -6.2488  -6.2488  -6.0437  -6.0437
    -5.6454  -5.6454  -5.5612  -5.5612   0.0779   0.0779   0.3494   0.3494

     occupation numbers 
     1.0000   1.0000   1.0000   1.0000   1.0000   1.0000   1.0000   1.0000
     1.0000   1.0000   1.0000   1.0000   1.0000   1.0000   1.0000   1.0000
     1.0000   1.0000   1.0000   1.0000   1.0000   1.0000   1.0000   1.0000

          k = 0.0000-0.5000-0.7441 ( 16760 PWs)   bands (ev):

   -25.8457 -25.8457 -25.6865 -25.6865 -13.9684 -13.9684 -13.2126 -13.2126
    -7.1931  -7.1931  -7.0435  -7.0435  -6.2354  -6.2354  -6.0601  -6.0601
    -5.6530  -5.6530  -5.5788  -5.5788   0.0846   0.0846   0.3600   0.3600

     occupation numbers 
     1.0000   1.0000   1.0000   1.0000   1.0000   1.0000   1.0000   1.0000
     1.0000   1.0000   1.0000   1.0000   1.0000   1.0000   1.0000   1.0000
     1.0000   1.0000   1.0000   1.0000   1.0000   1.0000   1.0000   1.0000

          k = 0.1000 0.1000 0.0000 ( 16737 PWs)   bands (ev):

   -25.9947 -25.7594 -25.7526 -25.6481 -14.1456 -13.5784 -13.5529 -12.7092
    -7.8044  -7.2307  -6.8760  -6.8517  -6.1044  -6.0332  -5.9158  -5.8450
    -5.7459  -5.6248  -5.3909  -5.3514  -0.0679   0.0245   0.3633   0.4009

     occupation numbers 
     1.0000   1.0000   1.0000   1.0000   1.0000   1.0000   1.0000   1.0000
     1.0000   1.0000   1.0000   1.0000   1.0000   1.0000   1.0000   1.0000
     1.0000   1.0000   1.0000   1.0000   1.0000   1.0000   1.0000   1.0000

          k = 0.1000 0.1000 0.1488 ( 16729 PWs)   bands (ev):

   -25.9878 -25.7761 -25.7345 -25.6474 -14.1466 -13.6903 -13.4480 -12.7295
    -7.7950  -7.2034  -6.8923  -6.8672  -6.1132  -6.0497  -5.9305  -5.8930
    -5.7341  -5.6189  -5.4306  -5.3335  -0.0516   0.0478   0.3272   0.4747

     occupation numbers 
     1.0000   1.0000   1.0000   1.0000   1.0000   1.0000   1.0000   1.0000
     1.0000   1.0000   1.0000   1.0000   1.0000   1.0000   1.0000   1.0000
     1.0000   1.0000   1.0000   1.0000   1.0000   1.0000   1.0000   1.0000

          k = 0.1000 0.1000 0.2977 ( 16717 PWs)   bands (ev):

   -25.9683 -25.7957 -25.7125 -25.6461 -14.1476 -13.8134 -13.3417 -12.7862
    -7.7617  -7.1270  -6.9560  -6.8892  -6.1396  -6.1034  -6.0191  -5.9453
    -5.7207  -5.6036  -5.4862  -5.3319  -0.0181   0.1135   0.2931   0.5636

     occupation numbers 
     1.0000   1.0000   1.0000   1.0000   1.0000   1.0000   1.0000   1.0000
     1.0000   1.0000   1.0000   1.0000   1.0000   1.0000   1.0000   1.0000
     1.0000   1.0000   1.0000   1.0000   1.0000   1.0000   1.0000   1.0000

          k = 0.1000 0.1000 0.4465 ( 16750 PWs)   bands (ev):

   -25.9396 -25.8173 -25.6908 -25.6459 -14.1431 -13.9261 -13.2444 -12.8682
    -7.6925  -7.0848  -7.0137  -6.8828  -6.2279  -6.1737  -6.1107  -5.9869
    -5.7079  -5.5937  -5.5175  -5.3557   0.0162   0.1864   0.2784   0.5799

     occupation numbers 
     1.0000   1.0000   1.0000   1.0000   1.0000   1.0000   1.0000   1.0000
     1.0000   1.0000   1.0000   1.0000   1.0000   1.0000   1.0000   1.0000
     1.0000   1.0000   1.0000   1.0000   1.0000   1.0000   1.0000   1.0000

          k = 0.1000 0.1000 0.5953 ( 16754 PWs)   bands (ev):

   -25.9063 -25.8429 -25.6718 -25.6492 -14.1250 -14.0188 -13.1515 -12.9623
    -7.5790  -7.2488  -6.9090  -6.8464  -6.3437  -6.2756  -6.1180  -6.0363
    -5.6864  -5.6192  -5.4942  -5.3971   0.0569   0.1649   0.3583   0.5430

     occupation numbers 
     1.0000   1.0000   1.0000   1.0000   1.0000   1.0000   1.0000   1.0000
     1.0000   1.0000   1.0000   1.0000   1.0000   1.0000   1.0000   1.0000
     1.0000   1.0000   1.0000   1.0000   1.0000   1.0000   1.0000   1.0000

          k = 0.1000 0.1000-0.7441 ( 16782 PWs)   bands (ev):

   -25.8729 -25.8729 -25.6576 -25.6576 -14.0852 -14.0852 -13.0581 -13.0581
    -7.4247  -7.4247  -6.8411  -6.8411  -6.3622  -6.3622  -6.0852  -6.0852
    -5.6553  -5.6553  -5.4468  -5.4468   0.1089   0.1089   0.4619   0.4619

     occupation numbers 
     1.0000   1.0000   1.0000   1.0000   1.0000   1.0000   1.0000   1.0000
     1.0000   1.0000   1.0000   1.0000   1.0000   1.0000   1.0000   1.0000
[...]
              0.702983680638147E+01
              0.817839920174883E+00
             -0.104461122150454E+01
              0.115715344460866E+01
             -0.122344476550772E+01
              0.528891906221062E+01
              0.154667345132276E+00
              0.101970504753320E+01
              0.387822689981229E+01
              0.126682163052516E+01
             -0.263755786856127E+01
             -0.452546600101284E+01
              0.204936959518147E+00
             -0.545014684279383E+01
              0.171809753163516E+01
             -0.663580255451894E+00
             -0.168030248575860E+01
              0.169026064736881E+01
              0.609088283528976E+00
              0.205415148728817E+01
             -0.108555922607801E+00
              0.275387489232040E+01
             -0.499090157867105E+01
             -0.332985468945747E+00
             -0.461770258034961E+01
              0.135289415679129E+01
              0.226814642215572E+01
             -0.500592521340065E+00
             -0.148837897252094E+01
              0.389807972027382E+01
             -0.166459717720661E+01
              0.110937337870891E+01
             -0.837676050610007E+00
              0.315002261406599E+01
              0.277308191579355E+01
             -0.107181770237847E+01
              0.259504070923992E+01
              0.943481714050229E+00
             -0.283640578522893E+01
             -0.140820059579445E+01
              0.417210654010776E+01
              0.199421299457476E+01
             -0.131719714622367E+00
             -0.292980236224800E+00
              0.661531943364387E+01
              0.377388535375406E+01
              0.117301323588280E+01
             -0.454516407591259E+01
              0.667211177057131E+01
             -0.314683759666738E+01
             -0.398361315238136E+01
             -0.578167537521926E+01
              0.278130970880872E+01
             -0.511860757557617E+01
              0.212054358182792E+01
              0.417222241547891E+01
              0.253226064920220E+01
              0.106057005050174E+01
              0.158206604423680E+01
             -0.439140621405464E+01
             -0.154847980021343E+01
             -0.136059112431659E+01
              0.210251480339014E+01
              0.424919912959912E+01
              0.451479040212164E+01
              0.381619121269893E+01
             -0.117702021685019E+01
              0.802950605702257E+00
             -0.161975924962256E+00
             -0.157179964743080E+01
              0.170417450068568E+01
              0.188031226804053E+01
             -0.236899263892548E+01
             -0.307186364141765E+01
             -0.135337002439693E+01
              0.355024235408929E+01
              0.181463504862030E+01
             -0.238256679174108E+01
             -0.327195343482515E+01
             -0.448380181489601E+01
             -0.242506908975410E+00
              0.103328082253518E+01
             -0.158300827833656E+01
              0.669732745722536E+01
              0.592048850281238E+00
             -0.774438819961333E+01
              0.156527377880343E+01
              0.356207650658547E+01
             -0.170339925437148E+01
              0.579940750104431E-01
             -0.210211934386210E+01
              0.322296617757983E+01
              0.132519301184257E+01
             -0.383427752116680E+01
              0.471003778612783E+01
             -0.294376150819645E+00
             -0.239668747921694E+01
             -0.240503244812089E+01
              0.913451164069280E+01
              0.452333423186632E+01
             -0.767392162520125E+00
              0.241374905542603E+01
             -0.348826078043308E+01
             -0.925457803288708E+00
             -0.424590560993312E+01
              0.175489655234774E+01
              0.248120408184317E+01
              0.323696217456132E+01
             -0.119829297394383E+01
              0.779130314596877E+00
              0.377706867176290E+01
              0.174010396906573E+01
              0.240757606898883E+01
              0.122227193443787E+01
             -0.629967454265902E+00
             -0.223436998584035E-01
             -0.679355210084948E+00
              0.917256215715351E+00
              0.359088307416890E+00
             -0.300768478230807E+01
              0.559647709754934E+01
              0.221849919582588E+01
             -0.373112541775715E+01
             -0.272010027063981E+01
             -0.415194487541682E+01
             -0.186404803615400E+01
             -0.104835699157811E+01
             -0.322546978068789E+01
             -0.315054838926868E+01
              0.458976222148030E+01
              0.332348660966094E+01
             -0.764053544222726E+00
              0.422870058853872E+01
              0.143902734327398E+01
             -0.737661505419925E+01
              0.404512922754225E+01
              0.971723079251703E+00
              0.322486271012079E+01
              0.768366132220791E+00
              0.823037898682362E+00
              0.613488191341411E+00
              0.186590399959176E+01
             -0.282402098506716E+01
             -0.155816547996612E+01
             -0.246572479743220E+01
             -0.186628118792706E+01
              0.101172124649970E+01
             -0.250260747180027E+01
              0.107958362111077E+01
              0.147136239020761E+01
             -0.197471085671383E+01
             -0.864357726594834E+00
             -0.436136666249229E-01
              0.479441805117258E+01
              0.524211471513137E+00
              0.507301791559951E+01
              0.123612983894015E+01
             -0.561379885022431E+01
             -0.217300334707155E+01
              0.185050289531981E+01
              0.401793675725026E+01
              0.126903290691528E+01
              0.151701621232815E+01
              0.408803634556361E+01
             -0.269902705813143E+01
             -0.408214957756002E+01
              0.486667504702287E+01
             -0.497389965261707E+00
             -0.576402104202055E+01
              0.169628500759133E+01
              0.346160715554610E+01
             -0.343588154261042E+00
             -0.307146154737172E+01
              0.438961808317675E-01
              0.305010299357590E+00
             -0.192026784634618E+01
              0.777960692427584E+00
             -0.694877425900156E+00
              0.781538339036550E+01
              0.198401232352951E+01
             -0.389850036183681E+01
              0.123019731594354E+01
              0.510385490204564E+01
             -0.300044784962699E+01
             -0.127054738599337E+01
             -0.258984815830339E+01
              0.192265984899419E+01
              0.130621136626801E+01
              0.136148685426725E+01
              0.154173566186374E+00
              0.534382865148701E+01
             -0.323503167136940E+01
             -0.250310639546541E+01
             -0.248193613161865E+01
              0.265497375099275E+01
              0.524389901427579E+01
             -0.407542098384178E+00
              0.214227197079911E+01
             -0.302038608538651E+01
             -0.258274666154829E+00
             -0.834291145857995E+00
             -0.774252998986082E+00
             -0.132271250515819E+01
             -0.127302482868296E+01
             -0.871365353680948E+00
              0.138861241586610E+01
              0.169573830054938E+01
             -0.364570525021249E+01
              0.284715969403763E+01
             -0.415657387980964E+01
              0.331237395993741E+01
             -0.394160482705736E+01
              0.625478443642582E+01
              0.334900657371498E+01
              0.316767036690475E+01
              0.730367642931544E+00
              0.523372549093452E+00
             -0.785387267735659E+01
              0.153072943440698E+01
              0.342759072732029E+00
              0.561261251575431E+00
             -0.100670780696812E+01
              0.560102807188417E+01
             -0.224552199637105E+01
             -0.210872769046531E+01
             -0.615260965118589E+01
             -0.206737777456127E+01
             -0.248365258803994E+01
             -0.263377363027388E+01
             -0.679123495474514E+00
             -0.969252340469570E+00
             -0.175285173516812E+01
             -0.228267386854079E+01
              0.164090474778438E+01
              0.602392382241462E+01
              0.546992738438360E+01
             -0.168477177691732E+01
             -0.673600840492034E+01
             -0.271453906704474E+01
              0.150350444504848E+01
              0.116254598463936E+01
              0.178902535883330E+01
              0.162545051706151E+01
              0.571011029691856E+00
              0.569018704390061E+01
             -0.149422197534470E+01
              0.314339040741323E+01
              0.121402072737190E+01
             -0.184022534226925E+01
             -0.129851854475418E+01
              0.282197026752424E+01
             -0.141506383645766E+01
             -0.125895545870746E+01
             -0.912482690711814E+00
              0.351718533733433E+01
             -0.442595623964787E+01
             -0.604185960119473E+00
             -0.378821157454799E+01
             -0.841091721738115E+01
              0.568841422346072E+00
             -0.987488238522443E+00
              0.290086032917414E+01
              0.337429367218540E+01
              0.465265147743867E+01
             -0.275689277478980E+01
              0.477499745620322E+01
              0.130441511468674E+01
             -0.107064767670386E+01
              0.951611963302891E+00
             -0.163694201671739E+01
             -0.144149509695784E+01
              0.226234330145712E+01
             -0.241599265503572E+01
              0.607462968317742E+01
             -0.169946878690148E+01
             -0.334450847427697E+01
              0.625075954269268E+01
             -0.354546945802973E+01
             -0.100681254601609E+01
              0.697112738175282E+00
              0.164680984514343E+01
             -0.289560004490649E+01
             -0.228878229632318E+01
              0.277814523839957E+01
             -0.542679422811113E+01
              0.364911546348153E+01
              0.653865378928363E+00
              0.271986128832851E+01
              0.417397323721471E+01
              0.789189387861752E+00
             -0.514845126497198E+01
             -0.244939801317520E+01
             -0.375156661842392E+01
             -0.229031876465417E+01
             -0.105827325402559E+01
              0.609930578746647E+00
             -0.129677863660779E+01
              0.262886726501556E+00
             -0.640181089390805E+01
             -0.154995605719339E-01
             -0.408920290423400E+01
              0.356097195598116E+01
             -0.165989211150397E+01
             -0.301995243523250E+00
              0.270976843313676E+01
              0.136628478794970E+00
              0.285292384408205E+01
             -0.479800986470127E+01
              0.114828445015462E+01
              0.567044115231683E+00
              0.180807422795578E+01
              0.373468705966382E+01
             -0.265635687063941E+00
             -0.430996243042580E+01
             -0.208260026603872E+01
             -0.132952910521462E+01
             -0.678704097796313E+00
              0.377460639073497E+01
              0.274924815496415E+01
             -0.206138026050731E+01
             -0.221706489524574E+01
              0.193891183790812E+01
              0.174041668684237E+01
             -0.478013602747561E+01
              0.150328179512171E+01
              0.344003703071789E+01
             -0.288989046987867E+00
              0.414745232652282E+01
              0.211851293810770E+01
              0.315402388746029E+01
              0.437489553618370E+01
              0.419350047429145E+00
             -0.725747517605549E+01
              0.739256158139499E+00
              0.756563559483163E+01
              0.540975014284953E+01
             -0.383191640134812E+01
              0.266929130091871E+00
              0.458865097092239E+01
              0.412886016120855E+01
              0.183758912341336E+01
             -0.131037920507272E+01
              0.183597490863875E+01
              0.468557704926068E+01
             -0.145539281337094E+01
             -0.162663892248607E+01
              0.261926443757642E+01
             -0.148291603805731E+00
              0.238169297557924E+01
             -0.146455539586837E+00
              0.483272061211292E+01
             -0.196081942236497E+01
              0.919492459690634E+00
             -0.277151789553098E+01
              0.249500624305927E+01
             -0.321566271600062E+00
              0.408432227822040E+01
              0.317530350199197E+00
              0.128761038024988E+01
             -0.253747882951779E+01
             -0.163200781104971E+01
             -0.918980007097884E+00
             -0.426592581876395E+00
              0.398646068739438E+01
              0.137363399591397E+01
              0.537242557832209E+01
              0.371770440379697E+01
              0.499289475166233E+00
              0.315222124474421E-01
              0.489818965407490E+01
              0.277785680805967E+01
              0.397377335331026E+00
              0.449700602015588E+01
             -0.418888501828602E+01
              0.165933273027482E+01
             -0.251428429238155E+01
             -0.142561407421995E+01
              0.620318548527757E+01
             -0.859568821059312E+00
              0.854004888856963E-02
             -0.982741447431293E+00
              0.520081721108956E+01
             -0.126007656146669E+01
             -0.449146686667383E-01
              0.104136082999943E+02
             -0.369603531951886E+01
             -0.303154233818121E+01
             -0.394647141715049E+01
             -0.164045325053740E+01
              0.205023077929188E+01
             -0.117621920853522E+01
              0.890322272771719E+00
             -0.169335912319220E+00
              0.130237264630131E+01
              0.222421483027578E+01
              0.230787900675185E+01
              0.417606050277060E+01
              0.194593262007127E+01
              0.264519003716801E+01
             -0.419712917018046E+01
             -0.335440857755596E+01
             -0.129311456464876E+01
             -0.369460610792606E+01
              0.645777783463080E+01
              0.562196840212186E+01
              0.265363760795978E+01
              0.673389080573202E+01
             -0.363826912499921E+01
             -0.162492057649961E+01
             -0.179561066947482E+01
              0.541718961550299E+01
 
 BEEF-vdW xc energy contributions
            1 :    -50.79386636368606     
            2 :     43.33453341096649     
            3 :    -32.08326244404292     
            4 :     21.36415614522720     
            5 :    -13.40235552860074     
            6 :     8.155495020181604     
            7 :    -4.759937371552383     
            8 :     2.496954376799096     
            9 :   -0.8183695493682137     
           10 :   -0.7312291148938428     
           11 :     2.340304136193474     
           12 :    -3.874122124496992     
           13 :     5.090681555878206     
           14 :    -5.844312064754511     
           15 :     6.100739575989216     
           16 :    -5.882881054564422     
           17 :     5.262446056921767     
           18 :    -4.365082654210731     
           19 :     3.340971821013326     
           20 :    -2.317342629806916     
           21 :     1.367664233343092     
           22 :   -0.5109974695300323     
           23 :   -0.2662000886248137     
           24 :    0.9834573264199733     
           25 :    -1.645354669890111     
           26 :     2.227117496051640     
           27 :    -2.673636173696295     
           28 :     2.920524850615507     
           29 :    -2.926089128134450     
           30 :     2.691319056970627     
           31 :    -6.021044741973164     
           32 :    -3.887943051688417     

     Writing all to output data dir ./O.save/
 
     init_run     :      0.76s CPU      0.82s WALL (       1 calls)
     electrons    :     21.77s CPU     34.42s WALL (       1 calls)
     forces       :      0.23s CPU      0.24s WALL (       1 calls)
     stress       :      0.54s CPU      0.57s WALL (       1 calls)

     Called by init_run:
     wfcinit      :      0.13s CPU      0.15s WALL (       1 calls)
     wfcinit:atom :      0.00s CPU      0.00s WALL (       4 calls)
     wfcinit:wfcr :      0.12s CPU      0.13s WALL (       4 calls)
     potinit      :      0.50s CPU      0.53s WALL (       1 calls)
     hinit0       :      0.04s CPU      0.04s WALL (       1 calls)

     Called by electrons:
     c_bands      :     14.75s CPU     26.67s WALL (      29 calls)
     sum_band     :      1.66s CPU      1.69s WALL (      29 calls)
     v_of_rho     :      4.36s CPU      4.87s WALL (      30 calls)
     v_h          :      0.03s CPU      0.04s WALL (      30 calls)
     v_xc         :      9.00s CPU     10.14s WALL (      66 calls)
     newd         :      0.08s CPU      0.08s WALL (      30 calls)
     PAW_pot      :      0.42s CPU      0.46s WALL (      30 calls)
     mix_rho      :      0.19s CPU      0.20s WALL (      29 calls)
     vdW_kernel   :      0.23s CPU      0.23s WALL (       1 calls)

     Called by c_bands:
     init_us_2    :      0.08s CPU      0.09s WALL (     244 calls)
     init_us_2:cp :      0.08s CPU      0.09s WALL (     244 calls)
     cegterg      :      7.53s CPU      7.71s WALL (     116 calls)

     Called by sum_band:
     sum_band:wei :      0.02s CPU      0.02s WALL (      29 calls)
     sum_band:loo :      1.27s CPU      1.30s WALL (      29 calls)
     sum_band:buf :      0.02s CPU      0.02s WALL (     116 calls)
     sum_band:ini :      0.04s CPU      0.04s WALL (     116 calls)
     sum_band:cal :      0.08s CPU      0.08s WALL (     116 calls)
     sum_band:bec :      0.00s CPU      0.00s WALL (     116 calls)
     addusdens    :      0.04s CPU      0.04s WALL (      29 calls)
     addusd:skk   :      0.00s CPU      0.00s WALL (      29 calls)
     addusd:dgemm :      0.00s CPU      0.00s WALL (      29 calls)
     addusd:qvan2 :      0.00s CPU      0.00s WALL (      29 calls)

     Called by *egterg:
     cdiaghg      :      0.32s CPU      0.33s WALL (     480 calls)
     cegterg:over :      0.24s CPU      0.25s WALL (     364 calls)
     cegterg:upda :      0.14s CPU      0.15s WALL (     364 calls)
     cegterg:last :      0.21s CPU      0.21s WALL (     211 calls)
     h_psi        :      6.31s CPU      6.47s WALL (     484 calls)
     s_psi        :      0.20s CPU      0.20s WALL (     484 calls)
     g_psi        :      0.01s CPU      0.01s WALL (     364 calls)

     Called by h_psi:
     h_psi:calbec :      0.32s CPU      0.33s WALL (     484 calls)
     vloc_psi     :      5.71s CPU      5.86s WALL (     484 calls)
     add_vuspsi   :      0.22s CPU      0.23s WALL (     484 calls)

     General routines
     calbec       :      0.42s CPU      0.42s WALL (     620 calls)
     fft          :      3.39s CPU      3.46s WALL (    3937 calls)
     ffts         :      0.02s CPU      0.03s WALL (      29 calls)
     fftw         :      6.01s CPU      6.16s WALL (   17288 calls)
 
     Parallel routines

     PAW routines
     PAW_pot      :      0.42s CPU      0.46s WALL (      30 calls)
     PAW_symme    :      0.10s CPU      0.10s WALL (      59 calls)
 
     PWSCF        :     28.00s CPU     43.14s WALL

 
   This run was terminated on:  13:30:11  21Jul2023            

=------------------------------------------------------------------------------=
   JOB DONE.
=------------------------------------------------------------------------------=
