
     Program PWSCF v.7.1 starts on 21Jul2023 at 11:59: 2 

     This program is part of the open-source Quantum ESPRESSO suite
     for quantum simulation of materials; please cite
         "P. Giannozzi et al., J. Phys.:Condens. Matter 21 395502 (2009);
         "P. Giannozzi et al., J. Phys.:Condens. Matter 29 465901 (2017);
         "P. Giannozzi et al., J. Chem. Phys. 152 154105 (2020);
          URL http://www.quantum-espresso.org", 
     in publications or presentations arising from this work. More details at
     http://www.quantum-espresso.org/quote

     Parallel version (MPI & OpenMP), running on     128 processor cores
     Number of MPI processes:               128
     Threads/MPI process:                     1

     MPI processes distributed on     1 nodes
     2007365 MiB available memory on the printing compute node when the environment starts
 
     Reading input from espresso.pwi
Warning: card &CELL ignored
Warning: card / ignored

     Current dimensions of program PWSCF are:
     Max number of different atomic species (ntypx) = 10
     Max number of k-points (npk) =  40000
     Max angular momentum in pseudopotentials (lmaxx) =  4

     **************************************************************************
     Initializing libbeef V0.1.2 with the BEEF-vdW functional.
     Citation: Wellendorff et al., PRB 85, 235149 (2012).
     **************************************************************************


     IMPORTANT: XC functional enforced from input :
     Exchange-correlation= BEEF-VDW
                           (   1   4  43  14   2   0   0)
     Any further DFT definition will be discarded
     Please, verify this is what you really want

     Found identity + (  0.0000 -0.5000 -0.5000) symmetry
     This is a supercell, fractional translations are disabled
 
     K-points division:     npool     =       4
     R & G space division:  proc/nbgrp/npool/nimage =      32
     Subspace diagonalization in iterative solution of the eigenvalue problem:
     a serial algorithm will be used

 
     Parallelization info
     --------------------
     sticks:   dense  smooth     PW     G-vecs:    dense   smooth      PW
     Min         192     192     51                11340    11340    1583
     Max         193     193     52                11343    11343    1588
     Sum        6149    6149   1649               362925   362925   50733
 
     Using Slab Decomposition
 


     bravais-lattice index     =            1
     lattice parameter (alat)  =      12.6874  a.u.
     unit-cell volume          =    2042.2818 (a.u.)^3
     number of atoms/cell      =            8
     number of atomic types    =            1
     number of electrons       =       112.00
     number of Kohn-Sham states=           56
     kinetic-energy cutoff     =     120.0000  Ry
     charge density cutoff     =     480.0000  Ry
     scf convergence threshold =      1.0E-08
     mixing beta               =       0.7000
     number of iterations used =            8  plain     mixing
     Exchange-correlation= BEEF-VDW
                           (   1   4  43  14   2   0   0)

     celldm(1)=  12.687378  celldm(2)=   0.000000  celldm(3)=   0.000000
     celldm(4)=   0.000000  celldm(5)=   0.000000  celldm(6)=   0.000000

     crystal axes: (cart. coord. in units of alat)
               a(1) = (   1.000000   0.000000   0.000000 )  
               a(2) = (   0.000000   1.000000   0.000000 )  
               a(3) = (   0.000000   0.000000   1.000000 )  

     reciprocal axes: (cart. coord. in units 2 pi/alat)
               b(1) = (  1.000000  0.000000  0.000000 )  
               b(2) = (  0.000000  1.000000  0.000000 )  
               b(3) = (  0.000000  0.000000  1.000000 )  


     PseudoPot. # 1 for Sn read from file:
     /trace/home/atimmins/packages/espresso/pseudo/Sn_pbe_v1.uspp.F.UPF
     MD5 check sum: 4cf58ce39ec5d5d420df3dd08604eb00
     Pseudo is Ultrasoft + core correction, Zval = 14.0
     Generated by new atomic code, or converted to UPF format
     Using radial grid of  891 points,  6 beta functions with: 
                l(1) =   0
                l(2) =   0
                l(3) =   1
                l(4) =   1
                l(5) =   2
                l(6) =   2
     Q(r) pseudized with  6 coefficients,  rinner =    1.200   1.200   1.200
                                                       1.200   1.200

     atomic species   valence    mass     pseudopotential
        Sn            14.00   118.71000     Sn( 1.00)

     24 Sym. Ops. (no inversion) found


                                    s                        frac. trans.

      isym =  1     identity                                     

 cryst.   s( 1) = (     1          0          0      )
                  (     0          1          0      )
                  (     0          0          1      )

 cart.    s( 1) = (  1.0000000  0.0000000  0.0000000 )
                  (  0.0000000  1.0000000  0.0000000 )
                  (  0.0000000  0.0000000  1.0000000 )


      isym =  2     180 deg rotation - cart. axis [0,0,1]        

 cryst.   s( 2) = (    -1          0          0      )
                  (     0         -1          0      )
                  (     0          0          1      )

 cart.    s( 2) = ( -1.0000000  0.0000000  0.0000000 )
                  (  0.0000000 -1.0000000  0.0000000 )
                  (  0.0000000  0.0000000  1.0000000 )


      isym =  3     180 deg rotation - cart. axis [0,1,0]        

 cryst.   s( 3) = (    -1          0          0      )
                  (     0          1          0      )
                  (     0          0         -1      )

 cart.    s( 3) = ( -1.0000000  0.0000000  0.0000000 )
                  (  0.0000000  1.0000000  0.0000000 )
                  (  0.0000000  0.0000000 -1.0000000 )


      isym =  4     180 deg rotation - cart. axis [1,0,0]        

 cryst.   s( 4) = (     1          0          0      )
                  (     0         -1          0      )
                  (     0          0         -1      )

 cart.    s( 4) = (  1.0000000  0.0000000  0.0000000 )
                  (  0.0000000 -1.0000000  0.0000000 )
                  (  0.0000000  0.0000000 -1.0000000 )


      isym =  5     120 deg rotation - cart. axis [-1,-1,-1]     

 cryst.   s( 5) = (     0          0          1      )
                  (     1          0          0      )
                  (     0          1          0      )

 cart.    s( 5) = (  0.0000000  1.0000000  0.0000000 )
                  (  0.0000000  0.0000000  1.0000000 )
                  (  1.0000000  0.0000000  0.0000000 )


      isym =  6     120 deg rotation - cart. axis [-1,1,1]       

 cryst.   s( 6) = (     0          0         -1      )
                  (    -1          0          0      )
                  (     0          1          0      )

 cart.    s( 6) = (  0.0000000 -1.0000000  0.0000000 )
                  (  0.0000000  0.0000000  1.0000000 )
                  ( -1.0000000  0.0000000  0.0000000 )


      isym =  7     120 deg rotation - cart. axis [1,1,-1]       

 cryst.   s( 7) = (     0          0         -1      )
                  (     1          0          0      )
                  (     0         -1          0      )

 cart.    s( 7) = (  0.0000000  1.0000000  0.0000000 )
                  (  0.0000000  0.0000000 -1.0000000 )
                  ( -1.0000000  0.0000000  0.0000000 )


      isym =  8     120 deg rotation - cart. axis [1,-1,1]       

 cryst.   s( 8) = (     0          0          1      )
                  (    -1          0          0      )
                  (     0         -1          0      )

 cart.    s( 8) = (  0.0000000 -1.0000000  0.0000000 )
                  (  0.0000000  0.0000000 -1.0000000 )
                  (  1.0000000  0.0000000  0.0000000 )


      isym =  9     120 deg rotation - cart. axis [1,1,1]        

 cryst.   s( 9) = (     0          1          0      )
                  (     0          0          1      )
                  (     1          0          0      )

 cart.    s( 9) = (  0.0000000  0.0000000  1.0000000 )
                  (  1.0000000  0.0000000  0.0000000 )
                  (  0.0000000  1.0000000  0.0000000 )


      isym = 10     120 deg rotation - cart. axis [-1,1,-1]      

 cryst.   s(10) = (     0         -1          0      )
                  (     0          0         -1      )
                  (     1          0          0      )

 cart.    s(10) = (  0.0000000  0.0000000  1.0000000 )
                  ( -1.0000000  0.0000000  0.0000000 )
                  (  0.0000000 -1.0000000  0.0000000 )


      isym = 11     120 deg rotation - cart. axis [1,-1,-1]      

 cryst.   s(11) = (     0         -1          0      )
                  (     0          0          1      )
                  (    -1          0          0      )

 cart.    s(11) = (  0.0000000  0.0000000 -1.0000000 )
                  ( -1.0000000  0.0000000  0.0000000 )
                  (  0.0000000  1.0000000  0.0000000 )


      isym = 12     120 deg rotation - cart. axis [-1,-1,1]      

 cryst.   s(12) = (     0          1          0      )
                  (     0          0         -1      )
                  (    -1          0          0      )

 cart.    s(12) = (  0.0000000  0.0000000 -1.0000000 )
                  (  1.0000000  0.0000000  0.0000000 )
                  (  0.0000000 -1.0000000  0.0000000 )


      isym = 13     inv. 180 deg rotation - cart. axis [1,1,0]   

 cryst.   s(13) = (     0         -1          0      )
                  (    -1          0          0      )
                  (     0          0          1      )

 cart.    s(13) = (  0.0000000 -1.0000000  0.0000000 )
                  ( -1.0000000  0.0000000  0.0000000 )
                  (  0.0000000  0.0000000  1.0000000 )


      isym = 14     inv. 180 deg rotation - cart. axis [1,-1,0]  

 cryst.   s(14) = (     0          1          0      )
                  (     1          0          0      )
                  (     0          0          1      )

 cart.    s(14) = (  0.0000000  1.0000000  0.0000000 )
                  (  1.0000000  0.0000000  0.0000000 )
                  (  0.0000000  0.0000000  1.0000000 )


      isym = 15     inv.  90 deg rotation - cart. axis [0,0,-1]  

 cryst.   s(15) = (     0          1          0      )
                  (    -1          0          0      )
                  (     0          0         -1      )

 cart.    s(15) = (  0.0000000 -1.0000000  0.0000000 )
                  (  1.0000000  0.0000000  0.0000000 )
                  (  0.0000000  0.0000000 -1.0000000 )


      isym = 16     inv.  90 deg rotation - cart. axis [0,0,1]   

 cryst.   s(16) = (     0         -1          0      )
                  (     1          0          0      )
                  (     0          0         -1      )

 cart.    s(16) = (  0.0000000  1.0000000  0.0000000 )
                  ( -1.0000000  0.0000000  0.0000000 )
                  (  0.0000000  0.0000000 -1.0000000 )


      isym = 17     inv. 180 deg rotation - cart. axis [1,0,1]   

 cryst.   s(17) = (     0          0         -1      )
                  (     0          1          0      )
                  (    -1          0          0      )

 cart.    s(17) = (  0.0000000  0.0000000 -1.0000000 )
                  (  0.0000000  1.0000000  0.0000000 )
                  ( -1.0000000  0.0000000  0.0000000 )


      isym = 18     inv. 180 deg rotation - cart. axis [-1,0,1]  

 cryst.   s(18) = (     0          0          1      )
                  (     0          1          0      )
                  (     1          0          0      )

 cart.    s(18) = (  0.0000000  0.0000000  1.0000000 )
                  (  0.0000000  1.0000000  0.0000000 )
                  (  1.0000000  0.0000000  0.0000000 )


      isym = 19     inv.  90 deg rotation - cart. axis [0,1,0]   

 cryst.   s(19) = (     0          0          1      )
                  (     0         -1          0      )
                  (    -1          0          0      )

 cart.    s(19) = (  0.0000000  0.0000000 -1.0000000 )
                  (  0.0000000 -1.0000000  0.0000000 )
                  (  1.0000000  0.0000000  0.0000000 )


      isym = 20     inv.  90 deg rotation - cart. axis [0,-1,0]  

 cryst.   s(20) = (     0          0         -1      )
                  (     0         -1          0      )
                  (     1          0          0      )

 cart.    s(20) = (  0.0000000  0.0000000  1.0000000 )
                  (  0.0000000 -1.0000000  0.0000000 )
                  ( -1.0000000  0.0000000  0.0000000 )


      isym = 21     inv. 180 deg rotation - cart. axis [0,1,1]   

 cryst.   s(21) = (     1          0          0      )
                  (     0          0         -1      )
                  (     0         -1          0      )

 cart.    s(21) = (  1.0000000  0.0000000  0.0000000 )
                  (  0.0000000  0.0000000 -1.0000000 )
                  (  0.0000000 -1.0000000  0.0000000 )


      isym = 22     inv. 180 deg rotation - cart. axis [0,1,-1]  

 cryst.   s(22) = (     1          0          0      )
                  (     0          0          1      )
                  (     0          1          0      )

 cart.    s(22) = (  1.0000000  0.0000000  0.0000000 )
                  (  0.0000000  0.0000000  1.0000000 )
                  (  0.0000000  1.0000000  0.0000000 )


      isym = 23     inv.  90 deg rotation - cart. axis [-1,0,0]  

 cryst.   s(23) = (    -1          0          0      )
                  (     0          0          1      )
                  (     0         -1          0      )

 cart.    s(23) = ( -1.0000000  0.0000000  0.0000000 )
                  (  0.0000000  0.0000000 -1.0000000 )
                  (  0.0000000  1.0000000  0.0000000 )


      isym = 24     inv.  90 deg rotation - cart. axis [1,0,0]   

 cryst.   s(24) = (    -1          0          0      )
                  (     0          0         -1      )
                  (     0          1          0      )

 cart.    s(24) = ( -1.0000000  0.0000000  0.0000000 )
                  (  0.0000000  0.0000000  1.0000000 )
                  (  0.0000000 -1.0000000  0.0000000 )


     point group T_d (-43m) 
     there are  5 classes
     the character table:

       E     8C3   3C2   6S4   6s_d 
A_1    1.00  1.00  1.00  1.00  1.00
A_2    1.00  1.00  1.00 -1.00 -1.00
E      2.00 -1.00  2.00  0.00  0.00
T_1    3.00  0.00 -1.00  1.00 -1.00
T_2    3.00  0.00 -1.00 -1.00  1.00

     the symmetry operations in each class and the name of the first element:

     E        1
          identity                                               
     8C3      5    7    8    6   12    9   10   11
          120 deg rotation - cart. axis [-1,-1,-1]               
     3C2      2    3    4
          180 deg rotation - cart. axis [0,0,1]                  
     6S4     15   16   20   19   23   24
          inv.  90 deg rotation - cart. axis [0,0,-1]            
     6s_d    13   14   17   18   21   22
          inv. 180 deg rotation - cart. axis [1,1,0]             

   Cartesian axes

     site n.     atom                  positions (alat units)
         1           Sn  tau(   1) = (   0.2499998   0.2499998   0.2499998  )
         2           Sn  tau(   2) = (   0.5000000   0.0000000   0.5000000  )
         3           Sn  tau(   3) = (   0.2499998   0.7500002   0.7500002  )
         4           Sn  tau(   4) = (   0.5000000   0.5000000   0.0000000  )
         5           Sn  tau(   5) = (   0.7500002   0.2499998   0.7500002  )
         6           Sn  tau(   6) = (   0.0000000   0.0000000   0.0000000  )
         7           Sn  tau(   7) = (   0.7500002   0.7500002   0.2499998  )
         8           Sn  tau(   8) = (   0.0000000   0.5000000   0.5000000  )

   Crystallographic axes

     site n.     atom                  positions (cryst. coord.)
         1           Sn  tau(   1) = (  0.2499998  0.2499998  0.2499998  )
         2           Sn  tau(   2) = (  0.5000000  0.0000000  0.5000000  )
         3           Sn  tau(   3) = (  0.2499998  0.7500002  0.7500002  )
         4           Sn  tau(   4) = (  0.5000000  0.5000000  0.0000000  )
         5           Sn  tau(   5) = (  0.7500002  0.2499998  0.7500002  )
         6           Sn  tau(   6) = (  0.0000000  0.0000000  0.0000000  )
         7           Sn  tau(   7) = (  0.7500002  0.7500002  0.2499998  )
         8           Sn  tau(   8) = (  0.0000000  0.5000000  0.5000000  )

     number of k points=    56
                       cart. coord. in units 2pi/alat
        k(    1) = (   0.0000000   0.0000000   0.0000000), wk =   0.0020000
        k(    2) = (   0.0000000   0.0000000   0.1000000), wk =   0.0120000
        k(    3) = (   0.0000000   0.0000000   0.2000000), wk =   0.0120000
        k(    4) = (   0.0000000   0.0000000   0.3000000), wk =   0.0120000
        k(    5) = (   0.0000000   0.0000000   0.4000000), wk =   0.0120000
        k(    6) = (   0.0000000   0.0000000  -0.5000000), wk =   0.0060000
        k(    7) = (   0.0000000   0.1000000   0.1000000), wk =   0.0240000
        k(    8) = (   0.0000000   0.1000000   0.2000000), wk =   0.0480000
        k(    9) = (   0.0000000   0.1000000   0.3000000), wk =   0.0480000
        k(   10) = (   0.0000000   0.1000000   0.4000000), wk =   0.0480000
        k(   11) = (   0.0000000   0.1000000  -0.5000000), wk =   0.0240000
        k(   12) = (   0.0000000   0.2000000   0.2000000), wk =   0.0240000
        k(   13) = (   0.0000000   0.2000000   0.3000000), wk =   0.0480000
        k(   14) = (   0.0000000   0.2000000   0.4000000), wk =   0.0480000
        k(   15) = (   0.0000000   0.2000000  -0.5000000), wk =   0.0240000
        k(   16) = (   0.0000000   0.3000000   0.3000000), wk =   0.0240000
        k(   17) = (   0.0000000   0.3000000   0.4000000), wk =   0.0480000
        k(   18) = (   0.0000000   0.3000000  -0.5000000), wk =   0.0240000
        k(   19) = (   0.0000000   0.4000000   0.4000000), wk =   0.0240000
        k(   20) = (   0.0000000   0.4000000  -0.5000000), wk =   0.0240000
        k(   21) = (   0.0000000  -0.5000000  -0.5000000), wk =   0.0060000
        k(   22) = (   0.1000000   0.1000000   0.1000000), wk =   0.0160000
        k(   23) = (   0.1000000   0.1000000   0.2000000), wk =   0.0480000
        k(   24) = (   0.1000000   0.1000000   0.3000000), wk =   0.0480000
        k(   25) = (   0.1000000   0.1000000   0.4000000), wk =   0.0480000
        k(   26) = (   0.1000000   0.1000000  -0.5000000), wk =   0.0240000
        k(   27) = (   0.1000000   0.2000000   0.2000000), wk =   0.0480000
        k(   28) = (   0.1000000   0.2000000   0.3000000), wk =   0.0960000
        k(   29) = (   0.1000000   0.2000000   0.4000000), wk =   0.0960000
        k(   30) = (   0.1000000   0.2000000  -0.5000000), wk =   0.0480000
        k(   31) = (   0.1000000   0.3000000   0.3000000), wk =   0.0480000
        k(   32) = (   0.1000000   0.3000000   0.4000000), wk =   0.0960000
        k(   33) = (   0.1000000   0.3000000  -0.5000000), wk =   0.0480000
        k(   34) = (   0.1000000   0.4000000   0.4000000), wk =   0.0480000
        k(   35) = (   0.1000000   0.4000000  -0.5000000), wk =   0.0480000
        k(   36) = (   0.1000000  -0.5000000  -0.5000000), wk =   0.0120000
        k(   37) = (   0.2000000   0.2000000   0.2000000), wk =   0.0160000
        k(   38) = (   0.2000000   0.2000000   0.3000000), wk =   0.0480000
        k(   39) = (   0.2000000   0.2000000   0.4000000), wk =   0.0480000
        k(   40) = (   0.2000000   0.2000000  -0.5000000), wk =   0.0240000
        k(   41) = (   0.2000000   0.3000000   0.3000000), wk =   0.0480000
        k(   42) = (   0.2000000   0.3000000   0.4000000), wk =   0.0960000
        k(   43) = (   0.2000000   0.3000000  -0.5000000), wk =   0.0480000
        k(   44) = (   0.2000000   0.4000000   0.4000000), wk =   0.0480000
        k(   45) = (   0.2000000   0.4000000  -0.5000000), wk =   0.0480000
        k(   46) = (   0.2000000  -0.5000000  -0.5000000), wk =   0.0120000
        k(   47) = (   0.3000000   0.3000000   0.3000000), wk =   0.0160000
        k(   48) = (   0.3000000   0.3000000   0.4000000), wk =   0.0480000
        k(   49) = (   0.3000000   0.3000000  -0.5000000), wk =   0.0240000
        k(   50) = (   0.3000000   0.4000000   0.4000000), wk =   0.0480000
        k(   51) = (   0.3000000   0.4000000  -0.5000000), wk =   0.0480000
        k(   52) = (   0.3000000  -0.5000000  -0.5000000), wk =   0.0120000
        k(   53) = (   0.4000000   0.4000000   0.4000000), wk =   0.0160000
        k(   54) = (   0.4000000   0.4000000  -0.5000000), wk =   0.0240000
        k(   55) = (   0.4000000  -0.5000000  -0.5000000), wk =   0.0120000
        k(   56) = (  -0.5000000  -0.5000000  -0.5000000), wk =   0.0020000

                       cryst. coord.
        k(    1) = (   0.0000000   0.0000000   0.0000000), wk =   0.0020000
        k(    2) = (   0.0000000   0.0000000   0.1000000), wk =   0.0120000
        k(    3) = (   0.0000000   0.0000000   0.2000000), wk =   0.0120000
        k(    4) = (   0.0000000   0.0000000   0.3000000), wk =   0.0120000
        k(    5) = (   0.0000000   0.0000000   0.4000000), wk =   0.0120000
        k(    6) = (   0.0000000   0.0000000  -0.5000000), wk =   0.0060000
        k(    7) = (   0.0000000   0.1000000   0.1000000), wk =   0.0240000
        k(    8) = (   0.0000000   0.1000000   0.2000000), wk =   0.0480000
        k(    9) = (   0.0000000   0.1000000   0.3000000), wk =   0.0480000
        k(   10) = (   0.0000000   0.1000000   0.4000000), wk =   0.0480000
        k(   11) = (   0.0000000   0.1000000  -0.5000000), wk =   0.0240000
        k(   12) = (   0.0000000   0.2000000   0.2000000), wk =   0.0240000
        k(   13) = (   0.0000000   0.2000000   0.3000000), wk =   0.0480000
        k(   14) = (   0.0000000   0.2000000   0.4000000), wk =   0.0480000
        k(   15) = (   0.0000000   0.2000000  -0.5000000), wk =   0.0240000
        k(   16) = (   0.0000000   0.3000000   0.3000000), wk =   0.0240000
        k(   17) = (   0.0000000   0.3000000   0.4000000), wk =   0.0480000
        k(   18) = (   0.0000000   0.3000000  -0.5000000), wk =   0.0240000
        k(   19) = (   0.0000000   0.4000000   0.4000000), wk =   0.0240000
        k(   20) = (   0.0000000   0.4000000  -0.5000000), wk =   0.0240000
        k(   21) = (   0.0000000  -0.5000000  -0.5000000), wk =   0.0060000
        k(   22) = (   0.1000000   0.1000000   0.1000000), wk =   0.0160000
        k(   23) = (   0.1000000   0.1000000   0.2000000), wk =   0.0480000
        k(   24) = (   0.1000000   0.1000000   0.3000000), wk =   0.0480000
        k(   25) = (   0.1000000   0.1000000   0.4000000), wk =   0.0480000
        k(   26) = (   0.1000000   0.1000000  -0.5000000), wk =   0.0240000
        k(   27) = (   0.1000000   0.2000000   0.2000000), wk =   0.0480000
        k(   28) = (   0.1000000   0.2000000   0.3000000), wk =   0.0960000
        k(   29) = (   0.1000000   0.2000000   0.4000000), wk =   0.0960000
        k(   30) = (   0.1000000   0.2000000  -0.5000000), wk =   0.0480000
        k(   31) = (   0.1000000   0.3000000   0.3000000), wk =   0.0480000
        k(   32) = (   0.1000000   0.3000000   0.4000000), wk =   0.0960000
        k(   33) = (   0.1000000   0.3000000  -0.5000000), wk =   0.0480000
        k(   34) = (   0.1000000   0.4000000   0.4000000), wk =   0.0480000
        k(   35) = (   0.1000000   0.4000000  -0.5000000), wk =   0.0480000
        k(   36) = (   0.1000000  -0.5000000  -0.5000000), wk =   0.0120000
        k(   37) = (   0.2000000   0.2000000   0.2000000), wk =   0.0160000
        k(   38) = (   0.2000000   0.2000000   0.3000000), wk =   0.0480000
        k(   39) = (   0.2000000   0.2000000   0.4000000), wk =   0.0480000
        k(   40) = (   0.2000000   0.2000000  -0.5000000), wk =   0.0240000
        k(   41) = (   0.2000000   0.3000000   0.3000000), wk =   0.0480000
        k(   42) = (   0.2000000   0.3000000   0.4000000), wk =   0.0960000
        k(   43) = (   0.2000000   0.3000000  -0.5000000), wk =   0.0480000
        k(   44) = (   0.2000000   0.4000000   0.4000000), wk =   0.0480000
        k(   45) = (   0.2000000   0.4000000  -0.5000000), wk =   0.0480000
        k(   46) = (   0.2000000  -0.5000000  -0.5000000), wk =   0.0120000
        k(   47) = (   0.3000000   0.3000000   0.3000000), wk =   0.0160000
        k(   48) = (   0.3000000   0.3000000   0.4000000), wk =   0.0480000
        k(   49) = (   0.3000000   0.3000000  -0.5000000), wk =   0.0240000
        k(   50) = (   0.3000000   0.4000000   0.4000000), wk =   0.0480000
        k(   51) = (   0.3000000   0.4000000  -0.5000000), wk =   0.0480000
        k(   52) = (   0.3000000  -0.5000000  -0.5000000), wk =   0.0120000
        k(   53) = (   0.4000000   0.4000000   0.4000000), wk =   0.0160000
        k(   54) = (   0.4000000   0.4000000  -0.5000000), wk =   0.0240000
        k(   55) = (   0.4000000  -0.5000000  -0.5000000), wk =   0.0120000
        k(   56) = (  -0.5000000  -0.5000000  -0.5000000), wk =   0.0020000

     Dense  grid:   362925 G-vectors     FFT dimensions: (  90,  90,  90)

     Dynamical RAM for                 wfc:       1.21 MB

     Dynamical RAM for     wfc (w. buffer):      18.15 MB

     Dynamical RAM for           str. fact:       0.17 MB

     Dynamical RAM for           local pot:       0.00 MB

     Dynamical RAM for          nlocal pot:       3.11 MB

     Dynamical RAM for                qrad:       1.76 MB

     Dynamical RAM for          rho,v,vnew:       1.08 MB

     Dynamical RAM for               rhoin:       0.36 MB

     Dynamical RAM for            rho*nmix:       2.77 MB

     Dynamical RAM for           G-vectors:       0.74 MB

     Dynamical RAM for          h,s,v(r/c):       0.57 MB

     Dynamical RAM for          <psi|beta>:       0.12 MB

     Dynamical RAM for                 psi:       2.42 MB

     Dynamical RAM for                hpsi:       2.42 MB

     Dynamical RAM for                spsi:       2.42 MB

     Dynamical RAM for      wfcinit/wfcrot:       2.49 MB

     Dynamical RAM for           addusdens:       8.52 MB

     Dynamical RAM for          addusforce:       9.12 MB

     Dynamical RAM for         addusstress:       8.76 MB

     Estimated static dynamical RAM per process >      26.63 MB

     Estimated max dynamical RAM per process >      38.52 MB

     Estimated total dynamical RAM >       4.56 GB

     Atomic positions and unit cell read from directory:
     ./BaSnO3.save/
 

     The initial density is read from file :
     ./BaSnO3.save/charge-density


     starting charge     115.1831, renormalised to     112.0000


     %%%%%%%%%%%%%%%%%%%%%%%%%%%%%%%%%%%%%%%%%%%%%%%%%%%%%%%%%%%%%%%%%%%%%%%%
     %                                                                      %
     % You are using vdW-DF, which was implemented by the Thonhauser group. %
     % Please cite the following two papers that made this development      %
     % possible and the two reviews that describe the various versions:     %
     %                                                                      %
     %   T. Thonhauser et al., PRL 115, 136402 (2015).                      %
     %   T. Thonhauser et al., PRB 76, 125112 (2007).                       %
     %   K. Berland et al., Rep. Prog. Phys. 78, 066501 (2015).             %
     %   D.C. Langreth et al., J. Phys.: Condens. Matter 21, 084203 (2009). %
     %                                                                      %
     % If you are calculating stress with vdW-DF, please also cite:         %
     %                                                                      %
     %   R. Sabatini et al., J. Phys.: Condens. Matter 24, 424209 (2012).   %
     %                                                                      %
     %%%%%%%%%%%%%%%%%%%%%%%%%%%%%%%%%%%%%%%%%%%%%%%%%%%%%%%%%%%%%%%%%%%%%%%%

     %%%%%%%%%%%%%%%%%%%%%%%%%%%%%%%%%%%%%%%%%%%%%%%%%%%%%%%%%%%%%%%%%%%%%%%%
     %                                                                      %
     %  vdW-DF NEWS:                                                        %
     %                                                                      %
     %  * vdW-DF3 is now available. DOI: 10.1021/acs.jctc.0c00471           %
     %    use with input_dft = 'vdW-DF3-opt1' or 'vdW-DF3-opt2'             %
     %                                                                      %
     %  * Unscreened and range-separated vdW-DF hybrid functionals          %
     %    DOI: 10.1063/1.4986522 and 10.1088/1361-648X/ac2ad2               %
     %    use with input_dft = 'vdW-DF-cx0' (etc) and 'vdW-DF-ahcx'         %
     %                                                                      %
     %%%%%%%%%%%%%%%%%%%%%%%%%%%%%%%%%%%%%%%%%%%%%%%%%%%%%%%%%%%%%%%%%%%%%%%%


     Carrying out vdW-DF run using the following parameters:
     Nqs    =  20  Npoints =  1024  r_max =  100.000
     q_mesh =  0.00001000  0.04494208  0.09755937  0.15916263
               0.23128650  0.31572767  0.41458969  0.53033537
               0.66584808  0.82450364  1.01025438  1.22772762
               1.48234092  1.78043706  2.12944203  2.53805004
               3.01644009  3.57652955  4.23227104  5.00000000


     -----------------------------------------------
     Non-local corr. energy    =       3.57734090 Ry
     -----------------------------------------------

     Starting wfcs from file

     total cpu time spent up to now is        4.2 secs

     Self-consistent Calculation

     iteration #  1     ecut=   120.00 Ry     beta= 0.70
     Davidson diagonalization with overlap

---- Real-time Memory Report at c_bands before calling an iterative solver
           174 MiB given to the printing process from OS
             0 MiB allocation reported by mallinfo(arena+hblkhd)
       2001497 MiB available memory on the node where the printing process lives
------------------
     ethr =  1.00E-05,  avg # of iterations =  6.0


     -----------------------------------------------
     Non-local corr. energy    =       3.63478841 Ry
     -----------------------------------------------


     total cpu time spent up to now is       11.1 secs

     total energy              =   -1318.26756274 Ry
     estimated scf accuracy    <       0.29470829 Ry

     iteration #  2     ecut=   120.00 Ry     beta= 0.70
     Davidson diagonalization with overlap

---- Real-time Memory Report at c_bands before calling an iterative solver
           199 MiB given to the printing process from OS
             0 MiB allocation reported by mallinfo(arena+hblkhd)
       1999875 MiB available memory on the node where the printing process lives
------------------
     ethr =  2.63E-04,  avg # of iterations =  2.0


     -----------------------------------------------
     Non-local corr. energy    =       3.62381080 Ry
     -----------------------------------------------


     total cpu time spent up to now is       15.6 secs

     total energy              =   -1318.36360345 Ry
     estimated scf accuracy    <       0.02153320 Ry

     iteration #  3     ecut=   120.00 Ry     beta= 0.70
     Davidson diagonalization with overlap

---- Real-time Memory Report at c_bands before calling an iterative solver
           200 MiB given to the printing process from OS
             0 MiB allocation reported by mallinfo(arena+hblkhd)
       1999737 MiB available memory on the node where the printing process lives
------------------
     ethr =  1.92E-05,  avg # of iterations =  2.1


     -----------------------------------------------
     Non-local corr. energy    =       3.62284604 Ry
     -----------------------------------------------


     total cpu time spent up to now is       20.3 secs

     total energy              =   -1318.36695592 Ry
     estimated scf accuracy    <       0.00025464 Ry

     iteration #  4     ecut=   120.00 Ry     beta= 0.70
     Davidson diagonalization with overlap

---- Real-time Memory Report at c_bands before calling an iterative solver
           200 MiB given to the printing process from OS
             0 MiB allocation reported by mallinfo(arena+hblkhd)
       1999850 MiB available memory on the node where the printing process lives
------------------
     ethr =  2.27E-07,  avg # of iterations =  3.5


     -----------------------------------------------
     Non-local corr. energy    =       3.62368950 Ry
     -----------------------------------------------


     total cpu time spent up to now is       25.3 secs

     total energy              =   -1318.36706008 Ry
     estimated scf accuracy    <       0.00006422 Ry

     iteration #  5     ecut=   120.00 Ry     beta= 0.70
     Davidson diagonalization with overlap

---- Real-time Memory Report at c_bands before calling an iterative solver
           200 MiB given to the printing process from OS
             0 MiB allocation reported by mallinfo(arena+hblkhd)
       1999835 MiB available memory on the node where the printing process lives
------------------
     ethr =  5.73E-08,  avg # of iterations =  2.9


     -----------------------------------------------
     Non-local corr. energy    =       3.62369635 Ry
     -----------------------------------------------


     total cpu time spent up to now is       30.2 secs

     total energy              =   -1318.36707786 Ry
     estimated scf accuracy    <       0.00000148 Ry

     iteration #  6     ecut=   120.00 Ry     beta= 0.70
     Davidson diagonalization with overlap

---- Real-time Memory Report at c_bands before calling an iterative solver
           208 MiB given to the printing process from OS
             0 MiB allocation reported by mallinfo(arena+hblkhd)
       1999805 MiB available memory on the node where the printing process lives
------------------
     ethr =  1.32E-09,  avg # of iterations =  4.3


     -----------------------------------------------
     Non-local corr. energy    =       3.62366571 Ry
     -----------------------------------------------


     total cpu time spent up to now is       34.5 secs

     total energy              =   -1318.36707792 Ry
     estimated scf accuracy    <       0.00000069 Ry

     iteration #  7     ecut=   120.00 Ry     beta= 0.70
     Davidson diagonalization with overlap

---- Real-time Memory Report at c_bands before calling an iterative solver
           208 MiB given to the printing process from OS
             0 MiB allocation reported by mallinfo(arena+hblkhd)
       1999827 MiB available memory on the node where the printing process lives
------------------
     ethr =  6.14E-10,  avg # of iterations =  1.7


     -----------------------------------------------
     Non-local corr. energy    =       3.62361539 Ry
     -----------------------------------------------


     total cpu time spent up to now is       38.1 secs

     total energy              =   -1318.36707779 Ry
     estimated scf accuracy    <       0.00000020 Ry

     iteration #  8     ecut=   120.00 Ry     beta= 0.70
     Davidson diagonalization with overlap

---- Real-time Memory Report at c_bands before calling an iterative solver
           208 MiB given to the printing process from OS
             0 MiB allocation reported by mallinfo(arena+hblkhd)
       1999783 MiB available memory on the node where the printing process lives
------------------
     ethr =  1.81E-10,  avg # of iterations =  3.2


     -----------------------------------------------
     Non-local corr. energy    =       3.62361961 Ry
     -----------------------------------------------


     total cpu time spent up to now is       43.0 secs

     total energy              =   -1318.36707788 Ry
     estimated scf accuracy    <       0.00000003 Ry

     iteration #  9     ecut=   120.00 Ry     beta= 0.70
     Davidson diagonalization with overlap

---- Real-time Memory Report at c_bands before calling an iterative solver
           208 MiB given to the printing process from OS
             0 MiB allocation reported by mallinfo(arena+hblkhd)
       1999763 MiB available memory on the node where the printing process lives
------------------
     ethr =  2.75E-11,  avg # of iterations =  2.4


     -----------------------------------------------
     Non-local corr. energy    =       3.62361990 Ry
     -----------------------------------------------


     total cpu time spent up to now is       46.9 secs

     total energy              =   -1318.36707788 Ry
     estimated scf accuracy    <       0.00000002 Ry

     iteration # 10     ecut=   120.00 Ry     beta= 0.70
     Davidson diagonalization with overlap

---- Real-time Memory Report at c_bands before calling an iterative solver
           210 MiB given to the printing process from OS
             0 MiB allocation reported by mallinfo(arena+hblkhd)
       1999735 MiB available memory on the node where the printing process lives
------------------
     ethr =  1.96E-11,  avg # of iterations =  1.0


     -----------------------------------------------
     Non-local corr. energy    =       3.62363178 Ry
     -----------------------------------------------


     total cpu time spent up to now is       50.2 secs

     total energy              =   -1318.36707787 Ry
     estimated scf accuracy    <       0.00000002 Ry

     iteration # 11     ecut=   120.00 Ry     beta= 0.70
     Davidson diagonalization with overlap

---- Real-time Memory Report at c_bands before calling an iterative solver
           210 MiB given to the printing process from OS
             0 MiB allocation reported by mallinfo(arena+hblkhd)
       1999761 MiB available memory on the node where the printing process lives
------------------
     ethr =  1.90E-11,  avg # of iterations =  2.2


     -----------------------------------------------
     Non-local corr. energy    =       3.62363359 Ry
     -----------------------------------------------


     total cpu time spent up to now is       54.9 secs

     End of self-consistent calculation

          k = 0.0000 0.0000 0.0000 ( 45385 PWs)   bands (ev):

   -15.4514 -15.4514 -15.4514 -15.4514 -15.4514 -15.4514 -15.4129 -15.4129
   -15.4129 -15.3717 -15.3717 -15.3496 -15.3496 -15.3496 -15.3496 -15.3496
   -15.3496 -15.2582 -15.2582 -15.2582 -15.2579 -15.2579 -15.2579 -15.1960
   -15.1959 -15.1959 -15.1959 -15.1959 -15.1959 -15.1469 -15.1469 -15.1417
   -15.1417 -15.1417 -15.0884 -15.0884 -15.0884 -15.0884 -15.0884 -15.0884
    -3.4143  -0.6584  -0.6584  -0.6584  -0.6582  -0.6582  -0.6582   4.4113
     4.4113   4.4113   4.4113   4.4113   4.4113   5.1798   6.6241   6.6241

     occupation numbers 
     1.0000   1.0000   1.0000   1.0000   1.0000   1.0000   1.0000   1.0000
     1.0000   1.0000   1.0000   1.0000   1.0000   1.0000   1.0000   1.0000
     1.0000   1.0000   1.0000   1.0000   1.0000   1.0000   1.0000   1.0000
     1.0000   1.0000   1.0000   1.0000   1.0000   1.0000   1.0000   1.0000
     1.0000   1.0000   1.0000   1.0000   1.0000   1.0000   1.0000   1.0000
     1.0000   1.0000   1.0000   1.0000   1.0000   1.0000   1.0000   1.0000
     1.0000   1.0000   1.0000   1.0000   1.0000   1.0000   1.0000   1.0000

          k = 0.0000 0.0000 0.1000 ( 45341 PWs)   bands (ev):

   -15.4528 -15.4528 -15.4528 -15.4528 -15.4506 -15.4506 -15.4144 -15.4141
   -15.4141 -15.3703 -15.3679 -15.3674 -15.3463 -15.3463 -15.3463 -15.3463
   -15.3293 -15.2757 -15.2583 -15.2583 -15.2580 -15.2580 -15.2405 -15.2163
   -15.1990 -15.1990 -15.1990 -15.1990 -15.1772 -15.1584 -15.1482 -15.1402
   -15.1402 -15.1334 -15.0896 -15.0896 -15.0872 -15.0872 -15.0872 -15.0872
    -3.3854  -1.1581  -0.6547  -0.6547  -0.6545  -0.6545  -0.1199   4.3554
     4.3554   4.3554   4.3554   4.4429   4.4429   4.8850   6.4944   6.4944

     occupation numbers 
     1.0000   1.0000   1.0000   1.0000   1.0000   1.0000   1.0000   1.0000
     1.0000   1.0000   1.0000   1.0000   1.0000   1.0000   1.0000   1.0000
     1.0000   1.0000   1.0000   1.0000   1.0000   1.0000   1.0000   1.0000
     1.0000   1.0000   1.0000   1.0000   1.0000   1.0000   1.0000   1.0000
     1.0000   1.0000   1.0000   1.0000   1.0000   1.0000   1.0000   1.0000
     1.0000   1.0000   1.0000   1.0000   1.0000   1.0000   1.0000   1.0000
     1.0000   1.0000   1.0000   1.0000   1.0000   1.0000   1.0000   1.0000

          k = 0.0000 0.0000 0.2000 ( 45320 PWs)   bands (ev):

   -15.4561 -15.4561 -15.4561 -15.4561 -15.4482 -15.4482 -15.4172 -15.4172
   -15.4172 -15.3837 -15.3661 -15.3562 -15.3375 -15.3375 -15.3374 -15.3374
   -15.3074 -15.2929 -15.2588 -15.2588 -15.2585 -15.2585 -15.2377 -15.2234
   -15.2072 -15.2072 -15.2071 -15.2071 -15.1751 -15.1605 -15.1523 -15.1360
   -15.1360 -15.1265 -15.0931 -15.0931 -15.0841 -15.0841 -15.0841 -15.0841
    -3.2986  -1.6152  -0.6448  -0.6448  -0.6447  -0.6447   0.4527   4.2220
     4.2220   4.2220   4.2220   4.3009   4.5372   4.5372   6.1928   6.1928

     occupation numbers 
     1.0000   1.0000   1.0000   1.0000   1.0000   1.0000   1.0000   1.0000
     1.0000   1.0000   1.0000   1.0000   1.0000   1.0000   1.0000   1.0000
     1.0000   1.0000   1.0000   1.0000   1.0000   1.0000   1.0000   1.0000
     1.0000   1.0000   1.0000   1.0000   1.0000   1.0000   1.0000   1.0000
     1.0000   1.0000   1.0000   1.0000   1.0000   1.0000   1.0000   1.0000
     1.0000   1.0000   1.0000   1.0000   1.0000   1.0000   1.0000   1.0000
     1.0000   1.0000   1.0000   1.0000   1.0000   1.0000   1.0000   1.0000

          k = 0.0000 0.0000 0.3000 ( 45264 PWs)   bands (ev):

   -15.4597 -15.4597 -15.4597 -15.4597 -15.4444 -15.4444 -15.4219 -15.4219
   -15.4187 -15.3968 -15.3592 -15.3409 -15.3256 -15.3256 -15.3256 -15.3256
   -15.3093 -15.2845 -15.2599 -15.2599 -15.2596 -15.2596 -15.2596 -15.2178
   -15.2178 -15.2177 -15.2177 -15.2073 -15.1942 -15.1589 -15.1465 -15.1297
   -15.1297 -15.1231 -15.0986 -15.0986 -15.0806 -15.0806 -15.0806 -15.0806
    -3.1544  -2.0261  -0.6325  -0.6325  -0.6323  -0.6323   1.0547   3.6496
     4.0767   4.0767   4.0767   4.0767   4.6928   4.6928   5.8379   5.8379

     occupation numbers 
     1.0000   1.0000   1.0000   1.0000   1.0000   1.0000   1.0000   1.0000
     1.0000   1.0000   1.0000   1.0000   1.0000   1.0000   1.0000   1.0000
     1.0000   1.0000   1.0000   1.0000   1.0000   1.0000   1.0000   1.0000
     1.0000   1.0000   1.0000   1.0000   1.0000   1.0000   1.0000   1.0000
     1.0000   1.0000   1.0000   1.0000   1.0000   1.0000   1.0000   1.0000
     1.0000   1.0000   1.0000   1.0000   1.0000   1.0000   1.0000   1.0000
     1.0000   1.0000   1.0000   1.0000   1.0000   1.0000   1.0000   1.0000

          k = 0.0000 0.0000 0.4000 ( 45292 PWs)   bands (ev):

   -15.4624 -15.4624 -15.4624 -15.4624 -15.4394 -15.4394 -15.4276 -15.4276
   -15.4177 -15.4069 -15.3498 -15.3245 -15.3227 -15.3144 -15.3144 -15.3144
   -15.3143 -15.2815 -15.2618 -15.2617 -15.2615 -15.2615 -15.2611 -15.2271
   -15.2270 -15.2270 -15.2270 -15.2153 -15.1924 -15.1679 -15.1354 -15.1236
   -15.1219 -15.1219 -15.1056 -15.1056 -15.0780 -15.0780 -15.0780 -15.0780
    -2.9537  -2.3878  -0.6224  -0.6224  -0.6222  -0.6222   1.6811   2.9858
     3.9708   3.9708   3.9708   3.9708   4.9069   4.9069   5.4898   5.4898

     occupation numbers 
     1.0000   1.0000   1.0000   1.0000   1.0000   1.0000   1.0000   1.0000
     1.0000   1.0000   1.0000   1.0000   1.0000   1.0000   1.0000   1.0000
     1.0000   1.0000   1.0000   1.0000   1.0000   1.0000   1.0000   1.0000
     1.0000   1.0000   1.0000   1.0000   1.0000   1.0000   1.0000   1.0000
     1.0000   1.0000   1.0000   1.0000   1.0000   1.0000   1.0000   1.0000
     1.0000   1.0000   1.0000   1.0000   1.0000   1.0000   1.0000   1.0000
     1.0000   1.0000   1.0000   1.0000   1.0000   1.0000   1.0000   1.0000

          k = 0.0000 0.0000-0.5000 ( 45396 PWs)   bands (ev):

   -15.4634 -15.4634 -15.4634 -15.4634 -15.4336 -15.4336 -15.4336 -15.4336
   -15.4139 -15.4139 -15.3382 -15.3381 -15.3094 -15.3094 -15.3093 -15.3093
   -15.3027 -15.3027 -15.2631 -15.2630 -15.2628 -15.2628 -15.2378 -15.2378
   -15.2308 -15.2307 -15.2307 -15.2307 -15.1792 -15.1792 -15.1277 -15.1277
   -15.1137 -15.1137 -15.1136 -15.1136 -15.0771 -15.0771 -15.0771 -15.0771
    -2.6977  -2.6977  -0.6185  -0.6185  -0.6183  -0.6183   2.3268   2.3268
     3.9326   3.9326   3.9326   3.9326   5.1750   5.1750   5.1750   5.1750

     occupation numbers 
     1.0000   1.0000   1.0000   1.0000   1.0000   1.0000   1.0000   1.0000
     1.0000   1.0000   1.0000   1.0000   1.0000   1.0000   1.0000   1.0000
     1.0000   1.0000   1.0000   1.0000   1.0000   1.0000   1.0000   1.0000
     1.0000   1.0000   1.0000   1.0000   1.0000   1.0000   1.0000   1.0000
     1.0000   1.0000   1.0000   1.0000   1.0000   1.0000   1.0000   1.0000
     1.0000   1.0000   1.0000   1.0000   1.0000   1.0000   1.0000   1.0000
     1.0000   1.0000   1.0000   1.0000   1.0000   1.0000   1.0000   1.0000

          k = 0.0000 0.1000 0.1000 ( 45331 PWs)   bands (ev):

   -15.4562 -15.4520 -15.4520 -15.4519 -15.4519 -15.4515 -15.4178 -15.4152
   -15.4125 -15.3677 -15.3651 -15.3644 -15.3644 -15.3494 -15.3373 -15.3263
   -15.3263 -15.2758 -15.2758 -15.2599 -15.2567 -15.2406 -15.2406 -15.2190
   -15.2190 -15.2076 -15.1961 -15.1806 -15.1806 -15.1606 -15.1554 -15.1387
   -15.1379 -15.1294 -15.0884 -15.0884 -15.0883 -15.0883 -15.0883 -15.0839
    -3.3565  -1.1475  -1.1475  -0.7151  -0.5874  -0.1252  -0.1252   4.1716
     4.3716   4.3716   4.4045   4.4045   4.4629   4.6392   6.3652   6.5774

     occupation numbers 
     1.0000   1.0000   1.0000   1.0000   1.0000   1.0000   1.0000   1.0000
     1.0000   1.0000   1.0000   1.0000   1.0000   1.0000   1.0000   1.0000
     1.0000   1.0000   1.0000   1.0000   1.0000   1.0000   1.0000   1.0000
     1.0000   1.0000   1.0000   1.0000   1.0000   1.0000   1.0000   1.0000
     1.0000   1.0000   1.0000   1.0000   1.0000   1.0000   1.0000   1.0000
     1.0000   1.0000   1.0000   1.0000   1.0000   1.0000   1.0000   1.0000
     1.0000   1.0000   1.0000   1.0000   1.0000   1.0000   1.0000   1.0000

          k = 0.0000 0.1000 0.2000 ( 45336 PWs)   bands (ev):

   -15.4603 -15.4555 -15.4550 -15.4528 -15.4496 -15.4496 -15.4222 -15.4184
   -15.4126 -15.3800 -15.3636 -15.3553 -15.3549 -15.3462 -15.3240 -15.3181
   -15.3047 -15.2930 -15.2762 -15.2620 -15.2555 -15.2412 -15.2400 -15.2262
   -15.2236 -15.2200 -15.1990 -15.1898 -15.1748 -15.1644 -15.1580 -15.1370
   -15.1345 -15.1229 -15.0917 -15.0917 -15.0873 -15.0854 -15.0849 -15.0800
    -3.2701  -1.5994  -1.1169  -0.7718  -0.5131  -0.1420   0.4358   3.9786
     4.1161   4.2005   4.3150   4.4525   4.4569   4.5186   6.0650   6.3271

     occupation numbers 
     1.0000   1.0000   1.0000   1.0000   1.0000   1.0000   1.0000   1.0000
     1.0000   1.0000   1.0000   1.0000   1.0000   1.0000   1.0000   1.0000
     1.0000   1.0000   1.0000   1.0000   1.0000   1.0000   1.0000   1.0000
     1.0000   1.0000   1.0000   1.0000   1.0000   1.0000   1.0000   1.0000
     1.0000   1.0000   1.0000   1.0000   1.0000   1.0000   1.0000   1.0000
     1.0000   1.0000   1.0000   1.0000   1.0000   1.0000   1.0000   1.0000
     1.0000   1.0000   1.0000   1.0000   1.0000   1.0000   1.0000   1.0000

          k = 0.0000 0.1000 0.3000 ( 45307 PWs)   bands (ev):

   -15.4637 -15.4597 -15.4582 -15.4556 -15.4459 -15.4458 -15.4266 -15.4232
   -15.4132 -15.3928 -15.3575 -15.3424 -15.3408 -15.3384 -15.3093 -15.3091
   -15.3070 -15.2820 -15.2771 -15.2649 -15.2615 -15.2546 -15.2424 -15.2353
   -15.2334 -15.2076 -15.2058 -15.2018 -15.1933 -15.1620 -15.1509 -15.1351
   -15.1281 -15.1181 -15.0971 -15.0968 -15.0846 -15.0824 -15.0808 -15.0767
    -3.1267  -2.0063  -1.0700  -0.8283  -0.4339  -0.1727   1.0228   3.5106
     3.8284   4.0072   4.2261   4.3693   4.5964   4.6964   5.7128   5.9505

     occupation numbers 
     1.0000   1.0000   1.0000   1.0000   1.0000   1.0000   1.0000   1.0000
     1.0000   1.0000   1.0000   1.0000   1.0000   1.0000   1.0000   1.0000
     1.0000   1.0000   1.0000   1.0000   1.0000   1.0000   1.0000   1.0000
     1.0000   1.0000   1.0000   1.0000   1.0000   1.0000   1.0000   1.0000
     1.0000   1.0000   1.0000   1.0000   1.0000   1.0000   1.0000   1.0000
     1.0000   1.0000   1.0000   1.0000   1.0000   1.0000   1.0000   1.0000
     1.0000   1.0000   1.0000   1.0000   1.0000   1.0000   1.0000   1.0000

          k = 0.0000 0.1000 0.4000 ( 45325 PWs)   bands (ev):

   -15.4655 -15.4633 -15.4601 -15.4585 -15.4413 -15.4408 -15.4312 -15.4289
   -15.4125 -15.4026 -15.3488 -15.3307 -15.3298 -15.3243 -15.3232 -15.2964
   -15.2961 -15.2830 -15.2779 -15.2699 -15.2590 -15.2535 -15.2452 -15.2435
   -15.2432 -15.2140 -15.2132 -15.2125 -15.1929 -15.1696 -15.1408 -15.1332
   -15.1204 -15.1141 -15.1040 -15.1030 -15.0820 -15.0805 -15.0773 -15.0750
    -2.9272  -2.3650  -1.0122  -0.8874  -0.3545  -0.2192   1.6304   2.8826
     3.7509   3.8489   4.1789   4.2645   4.8006   4.9353   5.3691   5.5738

     occupation numbers 
     1.0000   1.0000   1.0000   1.0000   1.0000   1.0000   1.0000   1.0000
     1.0000   1.0000   1.0000   1.0000   1.0000   1.0000   1.0000   1.0000
     1.0000   1.0000   1.0000   1.0000   1.0000   1.0000   1.0000   1.0000
     1.0000   1.0000   1.0000   1.0000   1.0000   1.0000   1.0000   1.0000
     1.0000   1.0000   1.0000   1.0000   1.0000   1.0000   1.0000   1.0000
     1.0000   1.0000   1.0000   1.0000   1.0000   1.0000   1.0000   1.0000
     1.0000   1.0000   1.0000   1.0000   1.0000   1.0000   1.0000   1.0000

          k = 0.0000 0.1000-0.5000 ( 45350 PWs)   bands (ev):

   -15.4654 -15.4654 -15.4602 -15.4602 -15.4362 -15.4362 -15.4350 -15.4350
   -15.4091 -15.4091 -15.3376 -15.3376 -15.3256 -15.3256 -15.3038 -15.3038
   -15.2911 -15.2911 -15.2759 -15.2759 -15.2501 -15.2501 -15.2466 -15.2466
   -15.2361 -15.2361 -15.2166 -15.2166 -15.1801 -15.1801 -15.1346 -15.1346
   -15.1121 -15.1120 -15.1092 -15.1092 -15.0804 -15.0804 -15.0752 -15.0752
    -2.6727  -2.6727  -0.9497  -0.9496  -0.2810  -0.2810   2.2526   2.2526
     3.7583   3.7583   4.1926   4.1926   5.0606   5.0606   5.2304   5.2304

     occupation numbers 
     1.0000   1.0000   1.0000   1.0000   1.0000   1.0000   1.0000   1.0000
     1.0000   1.0000   1.0000   1.0000   1.0000   1.0000   1.0000   1.0000
     1.0000   1.0000   1.0000   1.0000   1.0000   1.0000   1.0000   1.0000
     1.0000   1.0000   1.0000   1.0000   1.0000   1.0000   1.0000   1.0000
     1.0000   1.0000   1.0000   1.0000   1.0000   1.0000   1.0000   1.0000
     1.0000   1.0000   1.0000   1.0000   1.0000   1.0000   1.0000   1.0000
     1.0000   1.0000   1.0000   1.0000   1.0000   1.0000   1.0000   1.0000

          k = 0.0000 0.2000 0.2000 ( 45323 PWs)   bands (ev):

   -15.4641 -15.4533 -15.4533 -15.4526 -15.4526 -15.4515 -15.4272 -15.4217
   -15.4090 -15.3701 -15.3701 -15.3583 -15.3506 -15.3490 -15.3075 -15.2972
   -15.2972 -15.2933 -15.2933 -15.2655 -15.2526 -15.2462 -15.2462 -15.2356
   -15.2243 -15.2243 -15.1963 -15.1773 -15.1746 -15.1746 -15.1677 -15.1395
   -15.1302 -15.1170 -15.0886 -15.0886 -15.0885 -15.0880 -15.0880 -15.0764
    -3.1851  -1.5529  -1.5529  -0.8971  -0.3750   0.3852   0.3852   3.6892
     3.7795   4.2496   4.2496   4.4795   4.4796   4.6145   5.7682   6.4348

     occupation numbers 
     1.0000   1.0000   1.0000   1.0000   1.0000   1.0000   1.0000   1.0000
     1.0000   1.0000   1.0000   1.0000   1.0000   1.0000   1.0000   1.0000
     1.0000   1.0000   1.0000   1.0000   1.0000   1.0000   1.0000   1.0000
     1.0000   1.0000   1.0000   1.0000   1.0000   1.0000   1.0000   1.0000
     1.0000   1.0000   1.0000   1.0000   1.0000   1.0000   1.0000   1.0000
     1.0000   1.0000   1.0000   1.0000   1.0000   1.0000   1.0000   1.0000
     1.0000   1.0000   1.0000   1.0000   1.0000   1.0000   1.0000   1.0000

          k = 0.0000 0.2000 0.3000 ( 45313 PWs)   bands (ev):

   -15.4666 -15.4581 -15.4554 -15.4525 -15.4497 -15.4491 -15.4318 -15.4267
   -15.4061 -15.3825 -15.3571 -15.3531 -15.3465 -15.3394 -15.3093 -15.2938
   -15.2901 -15.2871 -15.2755 -15.2698 -15.2666 -15.2538 -15.2513 -15.2499
   -15.2256 -15.2084 -15.1986 -15.1916 -15.1881 -15.1704 -15.1623 -15.1424
   -15.1237 -15.1118 -15.0932 -15.0930 -15.0877 -15.0858 -15.0832 -15.0741
    -3.0440  -1.9478  -1.4789  -1.0226  -0.2307   0.3025   0.9306   3.1687
     3.6552   4.0164   4.3669   4.4542   4.6531   4.7137   5.4218   6.1649

     occupation numbers 
     1.0000   1.0000   1.0000   1.0000   1.0000   1.0000   1.0000   1.0000
     1.0000   1.0000   1.0000   1.0000   1.0000   1.0000   1.0000   1.0000
     1.0000   1.0000   1.0000   1.0000   1.0000   1.0000   1.0000   1.0000
     1.0000   1.0000   1.0000   1.0000   1.0000   1.0000   1.0000   1.0000
     1.0000   1.0000   1.0000   1.0000   1.0000   1.0000   1.0000   1.0000
     1.0000   1.0000   1.0000   1.0000   1.0000   1.0000   1.0000   1.0000
     1.0000   1.0000   1.0000   1.0000   1.0000   1.0000   1.0000   1.0000

          k = 0.0000 0.2000 0.4000 ( 45342 PWs)   bands (ev):

   -15.4672 -15.4625 -15.4567 -15.4546 -15.4448 -15.4447 -15.4360 -15.4327
   -15.4031 -15.3921 -15.3461 -15.3449 -15.3414 -15.3240 -15.3238 -15.2937
   -15.2868 -15.2784 -15.2773 -15.2759 -15.2611 -15.2601 -15.2534 -15.2460
   -15.2291 -15.2107 -15.2031 -15.2005 -15.1943 -15.1744 -15.1533 -15.1449
   -15.1159 -15.1076 -15.0998 -15.0984 -15.0859 -15.0843 -15.0786 -15.0737
    -2.8479  -2.2974  -1.3825  -1.1480  -0.0835   0.1918   1.4881   2.6154
     3.6199   3.8137   4.4676   4.5494   4.6017   5.0130   5.0873   5.7653

     occupation numbers 
     1.0000   1.0000   1.0000   1.0000   1.0000   1.0000   1.0000   1.0000
     1.0000   1.0000   1.0000   1.0000   1.0000   1.0000   1.0000   1.0000
     1.0000   1.0000   1.0000   1.0000   1.0000   1.0000   1.0000   1.0000
     1.0000   1.0000   1.0000   1.0000   1.0000   1.0000   1.0000   1.0000
     1.0000   1.0000   1.0000   1.0000   1.0000   1.0000   1.0000   1.0000
     1.0000   1.0000   1.0000   1.0000   1.0000   1.0000   1.0000   1.0000
     1.0000   1.0000   1.0000   1.0000   1.0000   1.0000   1.0000   1.0000

          k = 0.0000 0.2000-0.5000 ( 45324 PWs)   bands (ev):

   -15.4657 -15.4657 -15.4563 -15.4563 -15.4404 -15.4404 -15.4389 -15.4389
   -15.3988 -15.3988 -15.3391 -15.3391 -15.3362 -15.3362 -15.3062 -15.3061
   -15.2890 -15.2890 -15.2717 -15.2717 -15.2630 -15.2630 -15.2376 -15.2376
   -15.2315 -15.2315 -15.2055 -15.2055 -15.1826 -15.1826 -15.1478 -15.1478
   -15.1076 -15.1076 -15.1033 -15.1033 -15.0845 -15.0845 -15.0753 -15.0753
    -2.5983  -2.5983  -1.2699  -1.2699   0.0602   0.0602   2.0519   2.0519
     3.6754   3.6754   4.5239   4.5239   4.7920   4.7920   5.3689   5.3689

     occupation numbers 
     1.0000   1.0000   1.0000   1.0000   1.0000   1.0000   1.0000   1.0000
     1.0000   1.0000   1.0000   1.0000   1.0000   1.0000   1.0000   1.0000
     1.0000   1.0000   1.0000   1.0000   1.0000   1.0000   1.0000   1.0000
     1.0000   1.0000   1.0000   1.0000   1.0000   1.0000   1.0000   1.0000
     1.0000   1.0000   1.0000   1.0000   1.0000   1.0000   1.0000   1.0000
     1.0000   1.0000   1.0000   1.0000   1.0000   1.0000   1.0000   1.0000
     1.0000   1.0000   1.0000   1.0000   1.0000   1.0000   1.0000   1.0000

          k = 0.0000 0.3000 0.3000 ( 45315 PWs)   bands (ev):

   -15.4677 -15.4548 -15.4548 -15.4517 -15.4517 -15.4513 -15.4361 -15.4320
   -15.3992 -15.3692 -15.3692 -15.3494 -15.3480 -15.3338 -15.3094 -15.3094
   -15.2744 -15.2726 -15.2725 -15.2705 -15.2698 -15.2666 -15.2666 -15.2458
   -15.2100 -15.2100 -15.1964 -15.1940 -15.1790 -15.1772 -15.1772 -15.1498
   -15.1172 -15.1068 -15.0901 -15.0901 -15.0891 -15.0876 -15.0876 -15.0732
    -2.9069  -1.8530  -1.8530  -1.2144  -0.0216   0.7876   0.7876   2.7318
     3.5720   4.1014   4.1014   4.7558   4.7558   4.8556   5.0836   6.1963

     occupation numbers 
     1.0000   1.0000   1.0000   1.0000   1.0000   1.0000   1.0000   1.0000
     1.0000   1.0000   1.0000   1.0000   1.0000   1.0000   1.0000   1.0000
     1.0000   1.0000   1.0000   1.0000   1.0000   1.0000   1.0000   1.0000
     1.0000   1.0000   1.0000   1.0000   1.0000   1.0000   1.0000   1.0000
     1.0000   1.0000   1.0000   1.0000   1.0000   1.0000   1.0000   1.0000
     1.0000   1.0000   1.0000   1.0000   1.0000   1.0000   1.0000   1.0000
     1.0000   1.0000   1.0000   1.0000   1.0000   1.0000   1.0000   1.0000

          k = 0.0000 0.3000 0.4000 ( 45341 PWs)   bands (ev):

   -15.4669 -15.4600 -15.4528 -15.4516 -15.4501 -15.4476 -15.4399 -15.4381
   -15.3928 -15.3789 -15.3565 -15.3488 -15.3424 -15.3232 -15.3226 -15.3085
   -15.2908 -15.2885 -15.2769 -15.2769 -15.2579 -15.2546 -15.2459 -15.2397
   -15.2138 -15.2075 -15.1975 -15.1964 -15.1917 -15.1817 -15.1694 -15.1572
   -15.1094 -15.1027 -15.0947 -15.0938 -15.0890 -15.0886 -15.0821 -15.0743
    -2.7169  -2.1868  -1.7260  -1.3999   0.1918   0.6073   1.2778   2.2573
     3.5826   3.8622   4.2579   4.7603   4.8236   4.9287   5.1196   5.9221

     occupation numbers 
     1.0000   1.0000   1.0000   1.0000   1.0000   1.0000   1.0000   1.0000
     1.0000   1.0000   1.0000   1.0000   1.0000   1.0000   1.0000   1.0000
     1.0000   1.0000   1.0000   1.0000   1.0000   1.0000   1.0000   1.0000
     1.0000   1.0000   1.0000   1.0000   1.0000   1.0000   1.0000   1.0000
     1.0000   1.0000   1.0000   1.0000   1.0000   1.0000   1.0000   1.0000
     1.0000   1.0000   1.0000   1.0000   1.0000   1.0000   1.0000   1.0000
     1.0000   1.0000   1.0000   1.0000   1.0000   1.0000   1.0000   1.0000

          k = 0.0000 0.3000-0.5000 ( 45324 PWs)   bands (ev):

   -15.4643 -15.4642 -15.4526 -15.4526 -15.4444 -15.4444 -15.4436 -15.4436
   -15.3864 -15.3864 -15.3494 -15.3494 -15.3344 -15.3343 -15.3078 -15.3078
   -15.3023 -15.3023 -15.2783 -15.2783 -15.2523 -15.2523 -15.2258 -15.2258
   -15.2253 -15.2253 -15.1981 -15.1981 -15.1864 -15.1864 -15.1635 -15.1635
   -15.1013 -15.1013 -15.0989 -15.0989 -15.0884 -15.0884 -15.0774 -15.0774
    -2.4759  -2.4759  -1.5728  -1.5727   0.4044   0.4045   1.7693   1.7693
     3.6830   3.6830   4.4804   4.4804   4.8970   4.8970   5.5238   5.5238

     occupation numbers 
     1.0000   1.0000   1.0000   1.0000   1.0000   1.0000   1.0000   1.0000
     1.0000   1.0000   1.0000   1.0000   1.0000   1.0000   1.0000   1.0000
     1.0000   1.0000   1.0000   1.0000   1.0000   1.0000   1.0000   1.0000
     1.0000   1.0000   1.0000   1.0000   1.0000   1.0000   1.0000   1.0000
     1.0000   1.0000   1.0000   1.0000   1.0000   1.0000   1.0000   1.0000
     1.0000   1.0000   1.0000   1.0000   1.0000   1.0000   1.0000   1.0000
     1.0000   1.0000   1.0000   1.0000   1.0000   1.0000   1.0000   1.0000

          k = 0.0000 0.4000 0.4000 ( 45306 PWs)   bands (ev):

   -15.4648 -15.4559 -15.4559 -15.4501 -15.4491 -15.4490 -15.4443 -15.4429
   -15.3828 -15.3659 -15.3659 -15.3529 -15.3382 -15.3215 -15.3215 -15.3168
   -15.3026 -15.2927 -15.2927 -15.2863 -15.2389 -15.2389 -15.2362 -15.2324
   -15.2099 -15.1999 -15.1999 -15.1955 -15.1876 -15.1863 -15.1863 -15.1695
   -15.1018 -15.0992 -15.0926 -15.0926 -15.0907 -15.0874 -15.0874 -15.0770
    -2.5360  -2.0365  -2.0365  -1.6366   0.4712   1.0252   1.0252   1.8582
     3.6372   3.9896   3.9896   4.4511   5.1677   5.2201   5.2201   5.8796

     occupation numbers 
     1.0000   1.0000   1.0000   1.0000   1.0000   1.0000   1.0000   1.0000
     1.0000   1.0000   1.0000   1.0000   1.0000   1.0000   1.0000   1.0000
     1.0000   1.0000   1.0000   1.0000   1.0000   1.0000   1.0000   1.0000
     1.0000   1.0000   1.0000   1.0000   1.0000   1.0000   1.0000   1.0000
     1.0000   1.0000   1.0000   1.0000   1.0000   1.0000   1.0000   1.0000
     1.0000   1.0000   1.0000   1.0000   1.0000   1.0000   1.0000   1.0000
     1.0000   1.0000   1.0000   1.0000   1.0000   1.0000   1.0000   1.0000

          k = 0.0000 0.4000-0.5000 ( 45340 PWs)   bands (ev):

   -15.4610 -15.4610 -15.4505 -15.4505 -15.4496 -15.4496 -15.4458 -15.4458
   -15.3741 -15.3741 -15.3570 -15.3570 -15.3317 -15.3317 -15.3153 -15.3153
   -15.3063 -15.3063 -15.2912 -15.2911 -15.2351 -15.2351 -15.2219 -15.2219
   -15.2126 -15.2126 -15.1945 -15.1945 -15.1905 -15.1905 -15.1805 -15.1805
   -15.0961 -15.0960 -15.0942 -15.0942 -15.0916 -15.0916 -15.0816 -15.0816
    -2.3080  -2.3080  -1.8511  -1.8511   0.7517   0.7517   1.4437   1.4437
     3.7766   3.7766   4.1891   4.1891   5.2585   5.2585   5.6055   5.6055

     occupation numbers 
     1.0000   1.0000   1.0000   1.0000   1.0000   1.0000   1.0000   1.0000
     1.0000   1.0000   1.0000   1.0000   1.0000   1.0000   1.0000   1.0000
     1.0000   1.0000   1.0000   1.0000   1.0000   1.0000   1.0000   1.0000
     1.0000   1.0000   1.0000   1.0000   1.0000   1.0000   1.0000   1.0000
     1.0000   1.0000   1.0000   1.0000   1.0000   1.0000   1.0000   1.0000
     1.0000   1.0000   1.0000   1.0000   1.0000   1.0000   1.0000   1.0000
     1.0000   1.0000   1.0000   1.0000   1.0000   1.0000   1.0000   1.0000

          k = 0.0000-0.5000-0.5000 ( 45320 PWs)   bands (ev):

   -15.4563 -15.4563 -15.4563 -15.4562 -15.4475 -15.4475 -15.4475 -15.4475
   -15.3643 -15.3643 -15.3643 -15.3643 -15.3258 -15.3258 -15.3258 -15.3258
   -15.3007 -15.3007 -15.3007 -15.3006 -15.2241 -15.2241 -15.2241 -15.2241
   -15.1979 -15.1979 -15.1979 -15.1979 -15.1927 -15.1927 -15.1927 -15.1927
   -15.0939 -15.0939 -15.0939 -15.0939 -15.0874 -15.0874 -15.0874 -15.0874
    -2.0981  -2.0981  -2.0981  -2.0981   1.1001   1.1001   1.1001   1.1001
     3.9489   3.9489   3.9489   3.9489   5.5219   5.5219   5.5220   5.5220

     occupation numbers 
     1.0000   1.0000   1.0000   1.0000   1.0000   1.0000   1.0000   1.0000
     1.0000   1.0000   1.0000   1.0000   1.0000   1.0000   1.0000   1.0000
     1.0000   1.0000   1.0000   1.0000   1.0000   1.0000   1.0000   1.0000
     1.0000   1.0000   1.0000   1.0000   1.0000   1.0000   1.0000   1.0000
     1.0000   1.0000   1.0000   1.0000   1.0000   1.0000   1.0000   1.0000
     1.0000   1.0000   1.0000   1.0000   1.0000   1.0000   1.0000   1.0000
     1.0000   1.0000   1.0000   1.0000   1.0000   1.0000   1.0000   1.0000

          k = 0.1000 0.1000 0.1000 ( 45376 PWs)   bands (ev):

   -15.4554 -15.4554 -15.4554 -15.4507 -15.4507 -15.4507 -15.4185 -15.4185
   -15.4111 -15.3642 -15.3642 -15.3622 -15.3621 -15.3621 -15.3225 -15.3225
   -15.3225 -15.2760 -15.2759 -15.2759 -15.2407 -15.2407 -15.2407 -15.2224
   -15.2223 -15.2223 -15.1829 -15.1829 -15.1829 -15.1605 -15.1605 -15.1439
   -15.1293 -15.1293 -15.0896 -15.0896 -15.0896 -15.0850 -15.0850 -15.0850
    -3.3278  -1.1410  -1.1410  -1.1410  -0.1273  -0.1273  -0.1273   4.2079
     4.2079   4.2079   4.4214   4.4939   4.4939   4.4939   6.4608   6.4608

     occupation numbers 
     1.0000   1.0000   1.0000   1.0000   1.0000   1.0000   1.0000   1.0000
     1.0000   1.0000   1.0000   1.0000   1.0000   1.0000   1.0000   1.0000
     1.0000   1.0000   1.0000   1.0000   1.0000   1.0000   1.0000   1.0000
     1.0000   1.0000   1.0000   1.0000   1.0000   1.0000   1.0000   1.0000
     1.0000   1.0000   1.0000   1.0000   1.0000   1.0000   1.0000   1.0000
     1.0000   1.0000   1.0000   1.0000   1.0000   1.0000   1.0000   1.0000
     1.0000   1.0000   1.0000   1.0000   1.0000   1.0000   1.0000   1.0000

          k = 0.1000 0.1000 0.2000 ( 45329 PWs)   bands (ev):

   -15.4595 -15.4595 -15.4530 -15.4520 -15.4520 -15.4483 -15.4235 -15.4206
   -15.4106 -15.3772 -15.3613 -15.3556 -15.3556 -15.3547 -15.3127 -15.3127
   -15.3017 -15.2931 -15.2766 -15.2765 -15.2426 -15.2410 -15.2410 -15.2311
   -15.2311 -15.2238 -15.1894 -15.1894 -15.1745 -15.1673 -15.1611 -15.1427
   -15.1284 -15.1218 -15.0930 -15.0884 -15.0884 -15.0882 -15.0811 -15.0811
    -3.2419  -1.5855  -1.1236  -1.1236  -0.1334  -0.1333   0.4193   3.9410
     4.0168   4.0168   4.3164   4.4921   4.4921   4.5863   6.1823   6.2330

     occupation numbers 
     1.0000   1.0000   1.0000   1.0000   1.0000   1.0000   1.0000   1.0000
     1.0000   1.0000   1.0000   1.0000   1.0000   1.0000   1.0000   1.0000
     1.0000   1.0000   1.0000   1.0000   1.0000   1.0000   1.0000   1.0000
     1.0000   1.0000   1.0000   1.0000   1.0000   1.0000   1.0000   1.0000
     1.0000   1.0000   1.0000   1.0000   1.0000   1.0000   1.0000   1.0000
     1.0000   1.0000   1.0000   1.0000   1.0000   1.0000   1.0000   1.0000
     1.0000   1.0000   1.0000   1.0000   1.0000   1.0000   1.0000   1.0000

          k = 0.1000 0.1000 0.3000 ( 45301 PWs)   bands (ev):

   -15.4629 -15.4629 -15.4548 -15.4548 -15.4493 -15.4445 -15.4286 -15.4241
   -15.4108 -15.3898 -15.3559 -15.3459 -15.3459 -15.3408 -15.3093 -15.3000
   -15.3000 -15.2796 -15.2778 -15.2778 -15.2635 -15.2431 -15.2431 -15.2405
   -15.2405 -15.2078 -15.1987 -15.1987 -15.1924 -15.1643 -15.1543 -15.1394
   -15.1253 -15.1161 -15.0983 -15.0932 -15.0857 -15.0857 -15.0777 -15.0777
    -3.0993  -1.9877  -1.1013  -1.1013  -0.1419  -0.1419   0.9901   3.3730
     3.8600   3.8600   4.4196   4.4196   4.4957   4.7384   5.8268   5.8467

     occupation numbers 
     1.0000   1.0000   1.0000   1.0000   1.0000   1.0000   1.0000   1.0000
     1.0000   1.0000   1.0000   1.0000   1.0000   1.0000   1.0000   1.0000
     1.0000   1.0000   1.0000   1.0000   1.0000   1.0000   1.0000   1.0000
     1.0000   1.0000   1.0000   1.0000   1.0000   1.0000   1.0000   1.0000
     1.0000   1.0000   1.0000   1.0000   1.0000   1.0000   1.0000   1.0000
     1.0000   1.0000   1.0000   1.0000   1.0000   1.0000   1.0000   1.0000
     1.0000   1.0000   1.0000   1.0000   1.0000   1.0000   1.0000   1.0000

          k = 0.1000 0.1000 0.4000 ( 45309 PWs)   bands (ev):

   -15.4650 -15.4650 -15.4575 -15.4575 -15.4446 -15.4397 -15.4338 -15.4289
   -15.4097 -15.3995 -15.3478 -15.3362 -15.3362 -15.3241 -15.3239 -15.2891
   -15.2891 -15.2847 -15.2788 -15.2788 -15.2567 -15.2522 -15.2522 -15.2420
   -15.2420 -15.2126 -15.2077 -15.2077 -15.1934 -15.1710 -15.1445 -15.1372
   -15.1196 -15.1112 -15.1050 -15.0993 -15.0832 -15.0832 -15.0757 -15.0757
    -2.9009  -2.3430  -1.0825  -1.0825  -0.1497  -0.1496   1.5777   2.7776
     3.7613   3.7613   4.3427   4.3427   4.7432   4.9474   5.4208   5.5127

     occupation numbers 
     1.0000   1.0000   1.0000   1.0000   1.0000   1.0000   1.0000   1.0000
     1.0000   1.0000   1.0000   1.0000   1.0000   1.0000   1.0000   1.0000
     1.0000   1.0000   1.0000   1.0000   1.0000   1.0000   1.0000   1.0000
     1.0000   1.0000   1.0000   1.0000   1.0000   1.0000   1.0000   1.0000
     1.0000   1.0000   1.0000   1.0000   1.0000   1.0000   1.0000   1.0000
     1.0000   1.0000   1.0000   1.0000   1.0000   1.0000   1.0000   1.0000
     1.0000   1.0000   1.0000   1.0000   1.0000   1.0000   1.0000   1.0000

          k = 0.1000 0.1000-0.5000 ( 45316 PWs)   bands (ev):

   -15.4657 -15.4657 -15.4586 -15.4586 -15.4393 -15.4393 -15.4343 -15.4343
   -15.4062 -15.4062 -15.3371 -15.3371 -15.3317 -15.3317 -15.3049 -15.3049
   -15.2864 -15.2864 -15.2772 -15.2772 -15.2564 -15.2564 -15.2426 -15.2426
   -15.2343 -15.2343 -15.2116 -15.2116 -15.1809 -15.1809 -15.1386 -15.1386
   -15.1125 -15.1125 -15.1056 -15.1056 -15.0821 -15.0821 -15.0750 -15.0750
    -2.6482  -2.6482  -1.0751  -1.0751  -0.1529  -0.1529   2.1759   2.1759
     3.7281   3.7281   4.3113   4.3113   5.0543   5.0543   5.2082   5.2082

     occupation numbers 
     1.0000   1.0000   1.0000   1.0000   1.0000   1.0000   1.0000   1.0000
     1.0000   1.0000   1.0000   1.0000   1.0000   1.0000   1.0000   1.0000
     1.0000   1.0000   1.0000   1.0000   1.0000   1.0000   1.0000   1.0000
     1.0000   1.0000   1.0000   1.0000   1.0000   1.0000   1.0000   1.0000
     1.0000   1.0000   1.0000   1.0000   1.0000   1.0000   1.0000   1.0000
     1.0000   1.0000   1.0000   1.0000   1.0000   1.0000   1.0000   1.0000
     1.0000   1.0000   1.0000   1.0000   1.0000   1.0000   1.0000   1.0000

          k = 0.1000 0.2000 0.2000 ( 45309 PWs)   bands (ev):

   -15.4632 -15.4571 -15.4571 -15.4507 -15.4496 -15.4496 -15.4273 -15.4236
   -15.4079 -15.3694 -15.3694 -15.3562 -15.3550 -15.3506 -15.3000 -15.2938
   -15.2938 -15.2932 -15.2932 -15.2776 -15.2494 -15.2494 -15.2428 -15.2405
   -15.2243 -15.2243 -15.1904 -15.1767 -15.1755 -15.1755 -15.1690 -15.1449
   -15.1248 -15.1172 -15.0916 -15.0916 -15.0896 -15.0842 -15.0842 -15.0775
    -3.1574  -1.5451  -1.5451  -1.1456  -0.1058   0.3715   0.3715   3.5341
     3.8295   4.1301   4.1301   4.5976   4.5977   4.6434   5.9158   6.3508

     occupation numbers 
     1.0000   1.0000   1.0000   1.0000   1.0000   1.0000   1.0000   1.0000
     1.0000   1.0000   1.0000   1.0000   1.0000   1.0000   1.0000   1.0000
     1.0000   1.0000   1.0000   1.0000   1.0000   1.0000   1.0000   1.0000
     1.0000   1.0000   1.0000   1.0000   1.0000   1.0000   1.0000   1.0000
     1.0000   1.0000   1.0000   1.0000   1.0000   1.0000   1.0000   1.0000
     1.0000   1.0000   1.0000   1.0000   1.0000   1.0000   1.0000   1.0000
     1.0000   1.0000   1.0000   1.0000   1.0000   1.0000   1.0000   1.0000

          k = 0.1000 0.2000 0.3000 ( 45317 PWs)   bands (ev):

   -15.4656 -15.4606 -15.4533 -15.4525 -15.4517 -15.4460 -15.4321 -15.4273
   -15.4056 -15.3815 -15.3584 -15.3517 -15.3508 -15.3398 -15.3093 -15.2943
   -15.2852 -15.2828 -15.2793 -15.2742 -15.2674 -15.2577 -15.2563 -15.2398
   -15.2253 -15.2086 -15.1945 -15.1906 -15.1870 -15.1713 -15.1635 -15.1454
   -15.1213 -15.1118 -15.0966 -15.0890 -15.0888 -15.0887 -15.0807 -15.0752
    -3.0172  -1.9326  -1.4827  -1.1866  -0.0561   0.2969   0.8966   3.0371
     3.7111   3.9541   4.3140   4.5686   4.6848   4.7737   5.5614   6.0843

     occupation numbers 
     1.0000   1.0000   1.0000   1.0000   1.0000   1.0000   1.0000   1.0000
     1.0000   1.0000   1.0000   1.0000   1.0000   1.0000   1.0000   1.0000
     1.0000   1.0000   1.0000   1.0000   1.0000   1.0000   1.0000   1.0000
     1.0000   1.0000   1.0000   1.0000   1.0000   1.0000   1.0000   1.0000
     1.0000   1.0000   1.0000   1.0000   1.0000   1.0000   1.0000   1.0000
     1.0000   1.0000   1.0000   1.0000   1.0000   1.0000   1.0000   1.0000
     1.0000   1.0000   1.0000   1.0000   1.0000   1.0000   1.0000   1.0000

          k = 0.1000 0.2000 0.4000 ( 45321 PWs)   bands (ev):

   -15.4663 -15.4633 -15.4548 -15.4538 -15.4484 -15.4415 -15.4373 -15.4317
   -15.4027 -15.3912 -15.3476 -15.3452 -15.3450 -15.3249 -15.3236 -15.2951
   -15.2890 -15.2859 -15.2732 -15.2708 -15.2657 -15.2638 -15.2507 -15.2382
   -15.2277 -15.2091 -15.2002 -15.1981 -15.1947 -15.1753 -15.1545 -15.1464
   -15.1159 -15.1066 -15.1027 -15.0949 -15.0870 -15.0863 -15.0779 -15.0747
    -2.8226  -2.2775  -1.4056  -1.2475   0.0164   0.2046   1.4318   2.5091
     3.6723   3.8085   4.5557   4.5611   4.6444   5.0195   5.1999   5.6977

     occupation numbers 
     1.0000   1.0000   1.0000   1.0000   1.0000   1.0000   1.0000   1.0000
     1.0000   1.0000   1.0000   1.0000   1.0000   1.0000   1.0000   1.0000
     1.0000   1.0000   1.0000   1.0000   1.0000   1.0000   1.0000   1.0000
     1.0000   1.0000   1.0000   1.0000   1.0000   1.0000   1.0000   1.0000
     1.0000   1.0000   1.0000   1.0000   1.0000   1.0000   1.0000   1.0000
     1.0000   1.0000   1.0000   1.0000   1.0000   1.0000   1.0000   1.0000
     1.0000   1.0000   1.0000   1.0000   1.0000   1.0000   1.0000   1.0000

          k = 0.1000 0.2000-0.5000 ( 45314 PWs)   bands (ev):

   -15.4654 -15.4654 -15.4552 -15.4552 -15.4429 -15.4429 -15.4366 -15.4366
   -15.3981 -15.3981 -15.3424 -15.3424 -15.3358 -15.3357 -15.3077 -15.3077
   -15.2928 -15.2928 -15.2701 -15.2701 -15.2641 -15.2641 -15.2333 -15.2333
   -15.2295 -15.2295 -15.2030 -15.2030 -15.1832 -15.1832 -15.1490 -15.1490
   -15.1094 -15.1094 -15.1011 -15.1011 -15.0857 -15.0857 -15.0757 -15.0757
    -2.5753  -2.5753  -1.3236  -1.3236   0.1067   0.1067   1.9711   1.9711
     3.7091   3.7091   4.5855   4.5855   4.8607   4.8607   5.3314   5.3314

     occupation numbers 
     1.0000   1.0000   1.0000   1.0000   1.0000   1.0000   1.0000   1.0000
     1.0000   1.0000   1.0000   1.0000   1.0000   1.0000   1.0000   1.0000
     1.0000   1.0000   1.0000   1.0000   1.0000   1.0000   1.0000   1.0000
     1.0000   1.0000   1.0000   1.0000   1.0000   1.0000   1.0000   1.0000
     1.0000   1.0000   1.0000   1.0000   1.0000   1.0000   1.0000   1.0000
     1.0000   1.0000   1.0000   1.0000   1.0000   1.0000   1.0000   1.0000
     1.0000   1.0000   1.0000   1.0000   1.0000   1.0000   1.0000   1.0000

          k = 0.1000 0.3000 0.3000 ( 45302 PWs)   bands (ev):

   -15.4667 -15.4568 -15.4568 -15.4505 -15.4491 -15.4491 -15.4358 -15.4320
   -15.3996 -15.3700 -15.3700 -15.3526 -15.3468 -15.3346 -15.3096 -15.3096
   -15.2824 -15.2770 -15.2770 -15.2761 -15.2635 -15.2618 -15.2618 -15.2377
   -15.2099 -15.2099 -15.1936 -15.1928 -15.1792 -15.1766 -15.1766 -15.1513
   -15.1162 -15.1073 -15.0931 -15.0931 -15.0901 -15.0853 -15.0853 -15.0744
    -2.8815  -1.8445  -1.8445  -1.3083   0.0714   0.7556   0.7556   2.6122
     3.6429   4.1084   4.1084   4.8096   4.8096   4.8804   5.2258   6.1499

     occupation numbers 
     1.0000   1.0000   1.0000   1.0000   1.0000   1.0000   1.0000   1.0000
     1.0000   1.0000   1.0000   1.0000   1.0000   1.0000   1.0000   1.0000
     1.0000   1.0000   1.0000   1.0000   1.0000   1.0000   1.0000   1.0000
     1.0000   1.0000   1.0000   1.0000   1.0000   1.0000   1.0000   1.0000
     1.0000   1.0000   1.0000   1.0000   1.0000   1.0000   1.0000   1.0000
     1.0000   1.0000   1.0000   1.0000   1.0000   1.0000   1.0000   1.0000
     1.0000   1.0000   1.0000   1.0000   1.0000   1.0000   1.0000   1.0000

          k = 0.1000 0.3000 0.4000 ( 45353 PWs)   bands (ev):

   -15.4659 -15.4602 -15.4518 -15.4514 -15.4509 -15.4451 -15.4402 -15.4370
   -15.3936 -15.3796 -15.3585 -15.3515 -15.3417 -15.3240 -15.3231 -15.3091
   -15.2936 -15.2923 -15.2828 -15.2817 -15.2528 -15.2498 -15.2427 -15.2339
   -15.2131 -15.2057 -15.1966 -15.1955 -15.1900 -15.1819 -15.1688 -15.1574
   -15.1098 -15.1029 -15.0981 -15.0913 -15.0902 -15.0900 -15.0819 -15.0755
    -2.6935  -2.1711  -1.7288  -1.4490   0.2285   0.5853   1.2210   2.1552
     3.6604   3.9125   4.3197   4.8655   4.8899   4.9543   5.1291   5.8855

     occupation numbers 
     1.0000   1.0000   1.0000   1.0000   1.0000   1.0000   1.0000   1.0000
     1.0000   1.0000   1.0000   1.0000   1.0000   1.0000   1.0000   1.0000
     1.0000   1.0000   1.0000   1.0000   1.0000   1.0000   1.0000   1.0000
     1.0000   1.0000   1.0000   1.0000   1.0000   1.0000   1.0000   1.0000
     1.0000   1.0000   1.0000   1.0000   1.0000   1.0000   1.0000   1.0000
     1.0000   1.0000   1.0000   1.0000   1.0000   1.0000   1.0000   1.0000
     1.0000   1.0000   1.0000   1.0000   1.0000   1.0000   1.0000   1.0000

          k = 0.1000 0.3000-0.5000 ( 45348 PWs)   bands (ev):

   -15.4635 -15.4635 -15.4517 -15.4517 -15.4459 -15.4459 -15.4411 -15.4411
   -15.3873 -15.3873 -15.3519 -15.3519 -15.3339 -15.3339 -15.3098 -15.3098
   -15.3042 -15.3042 -15.2836 -15.2836 -15.2469 -15.2469 -15.2235 -15.2235
   -15.2226 -15.2225 -15.1964 -15.1964 -15.1868 -15.1868 -15.1630 -15.1630
   -15.1036 -15.1036 -15.0976 -15.0976 -15.0895 -15.0895 -15.0783 -15.0783
    -2.4556  -2.4556  -1.5934  -1.5934   0.4042   0.4042   1.6887   1.6887
     3.7556   3.7556   4.5829   4.5829   4.9289   4.9289   5.5035   5.5035

     occupation numbers 
     1.0000   1.0000   1.0000   1.0000   1.0000   1.0000   1.0000   1.0000
     1.0000   1.0000   1.0000   1.0000   1.0000   1.0000   1.0000   1.0000
     1.0000   1.0000   1.0000   1.0000   1.0000   1.0000   1.0000   1.0000
     1.0000   1.0000   1.0000   1.0000   1.0000   1.0000   1.0000   1.0000
     1.0000   1.0000   1.0000   1.0000   1.0000   1.0000   1.0000   1.0000
     1.0000   1.0000   1.0000   1.0000   1.0000   1.0000   1.0000   1.0000
     1.0000   1.0000   1.0000   1.0000   1.0000   1.0000   1.0000   1.0000

          k = 0.1000 0.4000 0.4000 ( 45339 PWs)   bands (ev):

   -15.4637 -15.4556 -15.4555 -15.4494 -15.4479 -15.4479 -15.4435 -15.4424
   -15.3844 -15.3678 -15.3678 -15.3553 -15.3377 -15.3217 -15.3217 -15.3185
   -15.3046 -15.2961 -15.2960 -15.2914 -15.2353 -15.2353 -15.2311 -15.2293
   -15.2078 -15.1997 -15.1997 -15.1940 -15.1874 -15.1845 -15.1845 -15.1688
   -15.1025 -15.0998 -15.0942 -15.0942 -15.0917 -15.0875 -15.0875 -15.0783
    -2.5156  -2.0277  -2.0277  -1.6566   0.4658   0.9752   0.9752   1.7674
     3.7309   4.0791   4.0791   4.5809   5.1852   5.2329   5.2329   5.8640

     occupation numbers 
     1.0000   1.0000   1.0000   1.0000   1.0000   1.0000   1.0000   1.0000
     1.0000   1.0000   1.0000   1.0000   1.0000   1.0000   1.0000   1.0000
     1.0000   1.0000   1.0000   1.0000   1.0000   1.0000   1.0000   1.0000
     1.0000   1.0000   1.0000   1.0000   1.0000   1.0000   1.0000   1.0000
     1.0000   1.0000   1.0000   1.0000   1.0000   1.0000   1.0000   1.0000
     1.0000   1.0000   1.0000   1.0000   1.0000   1.0000   1.0000   1.0000
     1.0000   1.0000   1.0000   1.0000   1.0000   1.0000   1.0000   1.0000

          k = 0.1000 0.4000-0.5000 ( 45366 PWs)   bands (ev):

   -15.4599 -15.4599 -15.4498 -15.4498 -15.4488 -15.4488 -15.4449 -15.4449
   -15.3760 -15.3760 -15.3594 -15.3593 -15.3315 -15.3315 -15.3163 -15.3163
   -15.3088 -15.3088 -15.2952 -15.2952 -15.2310 -15.2309 -15.2192 -15.2192
   -15.2106 -15.2106 -15.1931 -15.1931 -15.1907 -15.1906 -15.1789 -15.1789
   -15.0975 -15.0975 -15.0944 -15.0944 -15.0925 -15.0925 -15.0827 -15.0827
    -2.2921  -2.2921  -1.8534  -1.8534   0.7182   0.7182   1.3706   1.3706
     3.8754   3.8754   4.3050   4.3050   5.2733   5.2733   5.6009   5.6009

     occupation numbers 
     1.0000   1.0000   1.0000   1.0000   1.0000   1.0000   1.0000   1.0000
     1.0000   1.0000   1.0000   1.0000   1.0000   1.0000   1.0000   1.0000
     1.0000   1.0000   1.0000   1.0000   1.0000   1.0000   1.0000   1.0000
     1.0000   1.0000   1.0000   1.0000   1.0000   1.0000   1.0000   1.0000
     1.0000   1.0000   1.0000   1.0000   1.0000   1.0000   1.0000   1.0000
     1.0000   1.0000   1.0000   1.0000   1.0000   1.0000   1.0000   1.0000
     1.0000   1.0000   1.0000   1.0000   1.0000   1.0000   1.0000   1.0000

          k = 0.1000-0.5000-0.5000 ( 45348 PWs)   bands (ev):

   -15.4551 -15.4551 -15.4551 -15.4551 -15.4468 -15.4468 -15.4468 -15.4468
   -15.3666 -15.3666 -15.3666 -15.3666 -15.3261 -15.3261 -15.3261 -15.3261
   -15.3038 -15.3038 -15.3038 -15.3037 -15.2209 -15.2209 -15.2209 -15.2209
   -15.1968 -15.1968 -15.1968 -15.1968 -15.1912 -15.1912 -15.1912 -15.1912
   -15.0947 -15.0947 -15.0947 -15.0947 -15.0886 -15.0886 -15.0886 -15.0886
    -2.0893  -2.0893  -2.0893  -2.0893   1.0426   1.0426   1.0426   1.0426
     4.0626   4.0626   4.0626   4.0626   5.5270   5.5270   5.5270   5.5270

     occupation numbers 
     1.0000   1.0000   1.0000   1.0000   1.0000   1.0000   1.0000   1.0000
     1.0000   1.0000   1.0000   1.0000   1.0000   1.0000   1.0000   1.0000
     1.0000   1.0000   1.0000   1.0000   1.0000   1.0000   1.0000   1.0000
     1.0000   1.0000   1.0000   1.0000   1.0000   1.0000   1.0000   1.0000
     1.0000   1.0000   1.0000   1.0000   1.0000   1.0000   1.0000   1.0000
     1.0000   1.0000   1.0000   1.0000   1.0000   1.0000   1.0000   1.0000
     1.0000   1.0000   1.0000   1.0000   1.0000   1.0000   1.0000   1.0000

          k = 0.2000 0.2000 0.2000 ( 45328 PWs)   bands (ev):

   -15.4606 -15.4606 -15.4606 -15.4484 -15.4484 -15.4484 -15.4278 -15.4278
   -15.4060 -15.3665 -15.3664 -15.3664 -15.3500 -15.3500 -15.2939 -15.2939
   -15.2939 -15.2845 -15.2844 -15.2844 -15.2574 -15.2574 -15.2574 -15.2243
   -15.2243 -15.2243 -15.1790 -15.1790 -15.1790 -15.1754 -15.1754 -15.1498
   -15.1176 -15.1176 -15.0928 -15.0928 -15.0928 -15.0807 -15.0807 -15.0807
    -3.0745  -1.5241  -1.5241  -1.5241   0.3347   0.3347   0.3347   3.1679
     3.9785   3.9785   3.9785   4.7294   4.7294   4.7294   6.1364   6.1364

     occupation numbers 
     1.0000   1.0000   1.0000   1.0000   1.0000   1.0000   1.0000   1.0000
     1.0000   1.0000   1.0000   1.0000   1.0000   1.0000   1.0000   1.0000
     1.0000   1.0000   1.0000   1.0000   1.0000   1.0000   1.0000   1.0000
[...]
             -0.200543375440679E+02
             -0.340983154722742E+02
             -0.247791184853918E+01
             -0.124427489073901E+02
              0.152407171809084E+02
              0.505716055332741E+01
              0.190079495610522E+02
              0.897372396107035E+01
              0.140018321304233E+02
             -0.959329385480022E+00
              0.436963553118345E+02
              0.729727247636390E+01
             -0.668579350956770E+01
              0.740013108568860E-01
             -0.461093630702955E+01
              0.361377213061752E+02
             -0.193290021816754E+01
              0.762546216504983E+01
              0.255148694945470E+02
              0.547794598451478E+01
             -0.203461212400557E+02
             -0.300155536868242E+02
              0.389562224044965E+00
             -0.336077583893266E+02
              0.112271504236635E+02
             -0.687790089333202E+01
             -0.156075370552294E+02
              0.143978000166319E+02
              0.508578709977138E+01
              0.128101488428241E+02
              0.102810933208625E+01
              0.203923875445255E+02
             -0.330358396732993E+02
             -0.304377584509112E+01
             -0.287852105647688E+02
              0.482857073687552E+01
              0.162302531457171E+02
             -0.277969532749245E+01
             -0.111697795063150E+02
              0.227884935747653E+02
             -0.104866475608799E+02
              0.766515026954781E+01
             -0.681095254697820E+01
              0.167183287265962E+02
              0.200051260983312E+02
             -0.888897876508889E+01
              0.168344800343721E+02
              0.663463740440858E+01
             -0.174199898315997E+02
             -0.111111404016826E+02
              0.282936487538417E+02
              0.137547754468162E+02
             -0.108507432423505E+01
             -0.384702183877732E+01
              0.422578207201118E+02
              0.253067563896848E+02
              0.944159510900559E+01
             -0.262205520618541E+02
              0.422135420314010E+02
             -0.190790861859981E+02
             -0.233753055540991E+02
             -0.368984119142239E+02
              0.169167660764723E+02
             -0.337283633084442E+02
              0.148288275191281E+02
              0.236338729087150E+02
              0.174010176136007E+02
              0.341833098536024E+01
              0.109876492445168E+02
             -0.264213515174246E+02
             -0.940697069821344E+01
             -0.851884463376683E+01
              0.131995746442404E+02
              0.288213095749001E+02
              0.281935010112944E+02
              0.214873674920636E+02
             -0.486755081756957E+01
              0.779953532463128E+01
              0.106531940975236E+01
             -0.860325312709608E+01
              0.128576234710515E+02
              0.127215110789969E+02
             -0.172155941427990E+02
             -0.176677165523330E+02
             -0.807199393206811E+01
              0.181011212807175E+02
              0.917544086408482E+01
             -0.122449522456165E+02
             -0.217256189930943E+02
             -0.307679329028346E+02
              0.758414632892915E+00
              0.851537483423857E+01
             -0.114012281464272E+02
              0.426329171524728E+02
              0.335682733805129E+00
             -0.492597122341338E+02
              0.119783951561627E+02
              0.204087288374841E+02
             -0.776338467904098E+01
              0.928634711850847E+00
             -0.116560058103869E+02
              0.191093595078266E+02
              0.934740871268173E+01
             -0.250334877810130E+02
              0.294517189281752E+02
              0.252167169594897E+01
             -0.117856685999061E+02
             -0.145360153016872E+02
              0.602910913840742E+02
              0.268027996752159E+02
             -0.708503341795512E+01
              0.141469870934168E+02
             -0.294730626511778E+02
             -0.604407609307293E+01
             -0.257823313166318E+02
              0.100488760117560E+02
              0.187933610218180E+02
              0.210341975464641E+02
             -0.884825705876861E+01
              0.195666943401130E+01
              0.257763957125373E+02
              0.804963609806967E+01
              0.153980887213085E+02
              0.607054920802764E+01
             -0.360939421669505E+01
              0.268671234801573E+00
             -0.465364945484531E+01
              0.534426567264009E+01
              0.141656607937500E+01
             -0.235554036697796E+02
              0.348330207481546E+02
              0.135022158399326E+02
             -0.256423331983280E+02
             -0.184903438649725E+02
             -0.263318172756506E+02
             -0.114216118333282E+02
             -0.888611797459751E+01
             -0.205674599159469E+02
             -0.202456113316093E+02
              0.236708320694904E+02
              0.194615979124116E+02
             -0.247157028773202E+01
              0.294188924006555E+02
              0.373875125199714E+01
             -0.468220832576282E+02
              0.258115972693737E+02
              0.454813140064354E+01
              0.199534118691312E+02
              0.331244402175246E+01
              0.237442088990916E+01
              0.373263491179243E+01
              0.103093650208951E+02
             -0.196851671825800E+02
             -0.945526969129256E+01
             -0.191178562013526E+02
             -0.156807065450817E+02
              0.667136970054506E+01
             -0.171186103081212E+02
              0.840674395879249E+01
              0.110672849662944E+02
             -0.104975622235343E+02
             -0.676936136843763E+01
              0.372045639954763E+00
              0.294546635507238E+02
              0.445558417319718E+01
              0.275121165858293E+02
              0.104153968336552E+02
             -0.373443462353915E+02
             -0.121944678726960E+02
              0.125194762055211E+02
              0.295032300634185E+02
              0.407271676083051E+01
              0.120702029369893E+02
              0.270289329021330E+02
             -0.152786910619672E+02
             -0.238250896823180E+02
              0.334385788349948E+02
              0.237347979720985E+01
             -0.348769065304222E+02
              0.124664286590694E+02
              0.226840959847682E+02
             -0.599386589683706E+01
             -0.231462735359259E+02
              0.521065100013979E+01
              0.113085552088683E+01
             -0.114564961184871E+02
              0.398460785039867E+01
             -0.380913735012583E+01
              0.520127734714050E+02
              0.156532681525188E+02
             -0.222318854975027E+02
              0.650779424546204E+01
              0.321393774441377E+02
             -0.220445935681539E+02
             -0.510862817563520E+01
             -0.204341922588564E+02
              0.167880406869078E+02
              0.484289254212627E+01
              0.112025054876832E+02
              0.208645341960556E+01
              0.371212226455491E+02
             -0.209018123604579E+02
             -0.159277166493632E+02
             -0.167090274028046E+02
              0.140857326670871E+02
              0.366899662740309E+02
             -0.620153857896348E+01
              0.147645213309530E+02
             -0.210463562928135E+02
              0.452981003940056E+01
             -0.675168400216202E+01
              0.176015762027791E+01
             -0.842317099906627E+01
             -0.678651365246633E+01
             -0.626492963372978E+01
              0.504676317401217E+01
              0.101676619117465E+02
             -0.233606743470361E+02
              0.172829977575328E+02
             -0.276213593989268E+02
              0.208736812438007E+02
             -0.219817100872926E+02
              0.351071753231994E+02
              0.196631513999051E+02
              0.229400322282276E+02
              0.566449338515335E+01
              0.674710548923002E+01
             -0.493396746270253E+02
              0.741530103902838E+01
              0.130471611529879E+01
              0.473898083825520E+01
             -0.808616545193797E+01
              0.383434787471175E+02
             -0.855431110211947E+01
             -0.163800181554354E+02
             -0.369327975663965E+02
             -0.128226179829228E+02
             -0.178308261664518E+02
             -0.151794441747365E+02
             -0.345027370633215E+01
             -0.851273347281509E+01
             -0.109079163784618E+02
             -0.164349005869927E+02
              0.125415045847422E+02
              0.398702370513126E+02
              0.334009182302190E+02
             -0.517962784933178E+01
             -0.404350365463722E+02
             -0.174813019611449E+02
              0.772023341864522E+01
              0.883493294850203E+01
              0.133696049944181E+02
              0.926798156643011E+01
              0.211535787999830E+01
              0.392745125557637E+02
             -0.945200479523561E+01
              0.189788713720732E+02
              0.103975026603660E+02
             -0.131668338059382E+02
             -0.638925333985495E+01
              0.178135527097114E+02
             -0.101969176696402E+02
             -0.619793972888315E+01
             -0.458618494124377E+01
              0.228211485513595E+02
             -0.303681616533573E+02
             -0.277742002411316E+01
             -0.233084960733583E+02
             -0.494908890884785E+02
             -0.694134256207974E+00
             -0.727544495501636E+01
              0.188909861983027E+02
              0.214068385286040E+02
              0.289544545460325E+02
             -0.193108216661910E+02
              0.299454461609768E+02
              0.786303202636503E+01
             -0.109528355446027E+02
              0.435541131472722E+01
             -0.875174542700009E+01
             -0.515781891131525E+01
              0.170597193728086E+02
             -0.143735632267904E+02
              0.376946861098748E+02
             -0.965262551743763E+01
             -0.207586886166360E+02
              0.397032503834913E+02
             -0.209045851214259E+02
             -0.150146415579496E+01
              0.217557135515705E+01
              0.117333623098538E+02
             -0.167543973277578E+02
             -0.126930902059925E+02
              0.205909034338572E+02
             -0.308382340615732E+02
              0.250277268161116E+02
              0.350842244701370E+01
              0.184260730862299E+02
              0.262281397113959E+02
              0.721747695235224E+01
             -0.365252186573839E+02
             -0.158974526441793E+02
             -0.261739830339894E+02
             -0.161218214069223E+02
             -0.406476788812509E+01
              0.610384838285981E+01
             -0.126233861655407E+02
              0.685189365602810E-01
             -0.362705990769880E+02
              0.212494443950447E+01
             -0.233282556738104E+02
              0.231958648743084E+02
             -0.135461851406937E+02
             -0.307601598636904E+01
              0.173802903179775E+02
              0.360708815886158E+01
              0.162129214933807E+02
             -0.305550518444368E+02
              0.497723279938310E+01
              0.166432167217451E+01
              0.131685194016756E+02
              0.211398796642967E+02
             -0.417233163399308E+01
             -0.231449959525441E+02
             -0.138939089544150E+02
             -0.968253972395897E+01
             -0.316230213289310E+01
              0.224386955435471E+02
              0.142215671605045E+02
             -0.148724816805110E+02
             -0.133681481618724E+02
              0.100887429877743E+02
              0.107426827769346E+02
             -0.296408025761407E+02
              0.698526351931380E+01
              0.212057901716438E+02
             -0.796187027969772E+00
              0.269731848944421E+02
              0.123699951262931E+02
              0.210797021595884E+02
              0.327092636355701E+02
              0.545615519911603E+01
             -0.437755011749695E+02
              0.567804137141154E+01
              0.475895139962967E+02
              0.349551190161579E+02
             -0.234915986606938E+02
              0.203827029509349E+01
              0.311538683628534E+02
              0.271717458002653E+02
              0.123993649781069E+02
             -0.724844744655659E+01
              0.121383756514700E+02
              0.240775865835677E+02
             -0.123188517518130E+02
             -0.741319068420671E+01
              0.163817550148083E+02
             -0.876190772857612E+00
              0.154843876433855E+02
             -0.494269910111419E+01
              0.315258024735173E+02
             -0.117002223675420E+02
              0.757983473483071E+01
             -0.129648568617457E+02
              0.154052993822256E+02
             -0.203521830302083E+01
              0.229420170659431E+02
              0.166193889845570E+01
              0.102944131537380E+02
             -0.150284570222298E+02
             -0.104855382455073E+02
             -0.517416789463856E+01
             -0.477682412119076E+01
              0.252097222773592E+02
              0.125709640006633E+02
              0.303075080625603E+02
              0.285523768785727E+02
              0.803776805416845E+01
              0.915225150428409E+00
              0.301712445334999E+02
              0.164551931114170E+02
             -0.111948969637368E+00
              0.285071881914687E+02
             -0.239496586198029E+02
              0.773418862970684E+01
             -0.159244925214948E+02
             -0.408858147209980E+01
              0.404604839655814E+02
             -0.560012627938301E+01
             -0.168558774543780E+01
             -0.446410369197872E+01
              0.332458463836929E+02
             -0.684599906826327E+01
             -0.699787525949802E+00
              0.667526304511338E+02
             -0.192991417606991E+02
             -0.248095977211426E+02
             -0.242907633864327E+02
             -0.159167096420682E+02
              0.149889749161205E+02
             -0.630897649294536E+01
              0.321269186848997E+01
             -0.150666124771175E+01
              0.841203342062828E+01
              0.135630900616302E+02
              0.160884499432970E+02
              0.226212727154432E+02
              0.143245835750930E+02
              0.151843774472866E+02
             -0.273491371224557E+02
             -0.283737552324460E+02
             -0.580501342654571E+01
             -0.255312575826536E+02
              0.400381328506274E+02
              0.337381195961715E+02
              0.164221185706647E+02
              0.444579270538773E+02
             -0.222038409738553E+02
             -0.944973125582574E+01
             -0.139011939872198E+02
              0.383073056133395E+02
 
 BEEF-vdW xc energy contributions
            1 :    -347.1399730958324     
            2 :     318.7853240975501     
            3 :    -270.2696499852464     
            4 :     214.5204185064151     
            5 :    -163.9919864930712     
            6 :     126.2071404710445     
            7 :    -102.0071760341049     
            8 :     86.97347720315776     
            9 :    -74.88668840709374     
           10 :     61.24047357678984     
           11 :    -45.09114236581610     
           12 :     28.63394210819757     
           13 :    -15.16453667669879     
           14 :     6.822090311270074     
           15 :    -3.397459706177472     
           16 :     2.700248842144617     
           17 :    -2.030254191566939     
           18 :   -0.2638751223164491     
           19 :     4.064740469594710     
           20 :    -7.915892264636739     
           21 :     10.19009728161188     
           22 :    -10.19363400983451     
           23 :     8.540483081137438     
           24 :    -6.655603535734883     
           25 :     5.819433660048617     
           26 :    -6.404065958597471     
           27 :     7.760969702236935     
           28 :    -8.763155873666790     
           29 :     8.592709768021507     
           30 :    -7.250145767097820     
           31 :    -29.21419647065210     
           32 :    -21.10435147671603     

     Writing all to output data dir ./BaSnO3.save/
 
     init_run     :      1.60s CPU      3.31s WALL (       1 calls)
     electrons    :     45.76s CPU     50.77s WALL (       1 calls)
     forces       :      0.71s CPU      0.73s WALL (       1 calls)
     stress       :      1.49s CPU      1.55s WALL (       1 calls)

     Called by init_run:
     wfcinit      :      0.74s CPU      2.36s WALL (       1 calls)
     potinit      :      0.39s CPU      0.44s WALL (       1 calls)
     hinit0       :      0.26s CPU      0.29s WALL (       1 calls)

     Called by electrons:
     c_bands      :     38.51s CPU     43.16s WALL (      11 calls)
     sum_band     :      5.41s CPU      5.52s WALL (      11 calls)
     v_of_rho     :      1.77s CPU      1.94s WALL (      12 calls)
     v_h          :      0.02s CPU      0.02s WALL (      12 calls)
     v_xc         :      6.15s CPU      6.83s WALL (      48 calls)
     newd         :      0.17s CPU      0.21s WALL (      12 calls)
     mix_rho      :      0.07s CPU      0.08s WALL (      11 calls)
     vdW_kernel   :      0.26s CPU      0.27s WALL (       1 calls)

     Called by c_bands:
     init_us_2    :      0.74s CPU      0.76s WALL (     336 calls)
     init_us_2:cp :      0.74s CPU      0.76s WALL (     336 calls)
     cegterg      :     35.31s CPU     35.92s WALL (     154 calls)

     Called by sum_band:
     sum_band:wei :      0.00s CPU      0.00s WALL (      11 calls)
     sum_band:loo :      4.80s CPU      4.89s WALL (      11 calls)
     sum_band:buf :      0.14s CPU      0.15s WALL (     154 calls)
     sum_band:ini :      0.31s CPU      0.31s WALL (     154 calls)
     sum_band:cal :      0.75s CPU      0.76s WALL (     154 calls)
     sum_band:bec :      0.01s CPU      0.01s WALL (     154 calls)
     addusdens    :      0.21s CPU      0.22s WALL (      11 calls)
     addusd:skk   :      0.00s CPU      0.00s WALL (      11 calls)
     addusd:dgemm :      0.13s CPU      0.14s WALL (      11 calls)
     addusd:qvan2 :      0.06s CPU      0.06s WALL (      11 calls)

     Called by *egterg:
     cdiaghg      :      2.33s CPU      2.36s WALL (     583 calls)
     cegterg:over :      2.09s CPU      2.13s WALL (     443 calls)
     cegterg:upda :      0.92s CPU      0.94s WALL (     443 calls)
     cegterg:last :      2.32s CPU      2.35s WALL (     356 calls)
     h_psi        :     24.02s CPU     24.43s WALL (     597 calls)
     s_psi        :      1.72s CPU      1.74s WALL (     597 calls)
     g_psi        :      0.05s CPU      0.05s WALL (     443 calls)

     Called by h_psi:
     h_psi:calbec :      2.58s CPU      2.62s WALL (     597 calls)
     vloc_psi     :     19.14s CPU     19.47s WALL (     597 calls)
     add_vuspsi   :      1.90s CPU      1.94s WALL (     597 calls)

     General routines
     calbec       :      3.75s CPU      3.81s WALL (     821 calls)
     fft          :      3.08s CPU      3.14s WALL (    2839 calls)
     ffts         :      0.01s CPU      0.01s WALL (      11 calls)
     fftw         :     20.89s CPU     21.25s WALL (   57374 calls)
 
     Parallel routines
 
     PWSCF        :     54.47s CPU   1m 4.04s WALL

 
   This run was terminated on:  12: 0: 6  21Jul2023            

=------------------------------------------------------------------------------=
   JOB DONE.
=------------------------------------------------------------------------------=
