
     Program PWSCF v.7.1 starts on 20Jul2023 at 16:39:36 

     This program is part of the open-source Quantum ESPRESSO suite
     for quantum simulation of materials; please cite
         "P. Giannozzi et al., J. Phys.:Condens. Matter 21 395502 (2009);
         "P. Giannozzi et al., J. Phys.:Condens. Matter 29 465901 (2017);
         "P. Giannozzi et al., J. Chem. Phys. 152 154105 (2020);
          URL http://www.quantum-espresso.org", 
     in publications or presentations arising from this work. More details at
     http://www.quantum-espresso.org/quote

     Parallel version (MPI & OpenMP), running on     128 processor cores
     Number of MPI processes:               128
     Threads/MPI process:                     1

     MPI processes distributed on     1 nodes
     1953516 MiB available memory on the printing compute node when the environment starts
 
     Reading input from espresso.pwi
Warning: card &CELL ignored
Warning: card / ignored

     Current dimensions of program PWSCF are:
     Max number of different atomic species (ntypx) = 10
     Max number of k-points (npk) =  40000
     Max angular momentum in pseudopotentials (lmaxx) =  4
     file O.pbe-n-kjpaw_psl.0.1.UPF: wavefunction(s)  2P renormalized

     **************************************************************************
     Initializing libbeef V0.1.2 with the BEEF-vdW functional.
     Citation: Wellendorff et al., PRB 85, 235149 (2012).
     **************************************************************************


     IMPORTANT: XC functional enforced from input :
     Exchange-correlation= BEEF-VDW
                           (   1   4  43  14   2   0   0)
     Any further DFT definition will be discarded
     Please, verify this is what you really want

 
     K-points division:     npool     =       8
     R & G space division:  proc/nbgrp/npool/nimage =      16
     Subspace diagonalization in iterative solution of the eigenvalue problem:
     a serial algorithm will be used

 
     Parallelization info
     --------------------
     sticks:   dense  smooth     PW     G-vecs:    dense   smooth      PW
     Min         198     198     55                 5700     5700     859
     Max         199     199     56                 5703     5703     862
     Sum        3181    3181    889                91239    91239   13767
 
     Using Slab Decomposition
 


     bravais-lattice index     =            6
     lattice parameter (alat)  =       9.1454  a.u.
     unit-cell volume          =     513.7903 (a.u.)^3
     number of atoms/cell      =            6
     number of atomic types    =            2
     number of electrons       =        52.00
     number of Kohn-Sham states=           26
     kinetic-energy cutoff     =     120.0000  Ry
     charge density cutoff     =     480.0000  Ry
     scf convergence threshold =      1.0E-08
     mixing beta               =       0.7000
     number of iterations used =            8  plain     mixing
     Exchange-correlation= BEEF-VDW
                           (   1   4  43  14   2   0   0)

     celldm(1)=   9.145373  celldm(2)=   0.000000  celldm(3)=   0.671710
     celldm(4)=   0.000000  celldm(5)=   0.000000  celldm(6)=   0.000000

     crystal axes: (cart. coord. in units of alat)
               a(1) = (   1.000000   0.000000   0.000000 )  
               a(2) = (   0.000000   1.000000   0.000000 )  
               a(3) = (   0.000000   0.000000   0.671710 )  

     reciprocal axes: (cart. coord. in units 2 pi/alat)
               b(1) = (  1.000000  0.000000  0.000000 )  
               b(2) = (  0.000000  1.000000  0.000000 )  
               b(3) = (  0.000000  0.000000  1.488738 )  


     PseudoPot. # 1 for Sn read from file:
     /trace/home/atimmins/packages/espresso/pseudo/Sn_pbe_v1.uspp.F.UPF
     MD5 check sum: 4cf58ce39ec5d5d420df3dd08604eb00
     Pseudo is Ultrasoft + core correction, Zval = 14.0
     Generated by new atomic code, or converted to UPF format
     Using radial grid of  891 points,  6 beta functions with: 
                l(1) =   0
                l(2) =   0
                l(3) =   1
                l(4) =   1
                l(5) =   2
                l(6) =   2
     Q(r) pseudized with  6 coefficients,  rinner =    1.200   1.200   1.200
                                                       1.200   1.200

     PseudoPot. # 2 for O  read from file:
     /trace/home/atimmins/packages/espresso/pseudo/O.pbe-n-kjpaw_psl.0.1.UPF
     MD5 check sum: 0234752ac141de4415c5fc33072bef88
     Pseudo is Projector augmented-wave + core cor, Zval =  6.0
     Generated using "atomic" code by A. Dal Corso  v.5.0.99 svn rev. 10869
     Shape of augmentation charge: BESSEL
     Using radial grid of 1095 points,  4 beta functions with: 
                l(1) =   0
                l(2) =   0
                l(3) =   1
                l(4) =   1
     Q(r) pseudized with 0 coefficients 


     atomic species   valence    mass     pseudopotential
        Sn            14.00   118.71000     Sn( 1.00)
        O              6.00    15.99900     O ( 1.00)

     16 Sym. Ops., with inversion, found ( 8 have fractional translation)


                                    s                        frac. trans.

      isym =  1     identity                                     

 cryst.   s( 1) = (     1          0          0      )
                  (     0          1          0      )
                  (     0          0          1      )

 cart.    s( 1) = (  1.0000000  0.0000000  0.0000000 )
                  (  0.0000000  1.0000000  0.0000000 )
                  (  0.0000000  0.0000000  1.0000000 )


      isym =  2     180 deg rotation - cart. axis [0,0,1]        

 cryst.   s( 2) = (    -1          0          0      )
                  (     0         -1          0      )
                  (     0          0          1      )

 cart.    s( 2) = ( -1.0000000  0.0000000  0.0000000 )
                  (  0.0000000 -1.0000000  0.0000000 )
                  (  0.0000000  0.0000000  1.0000000 )


      isym =  3     180 deg rotation - cart. axis [0,1,0]        

 cryst.   s( 3) = (    -1          0          0      )    f =( -0.5000000 )
                  (     0          1          0      )       ( -0.5000000 )
                  (     0          0         -1      )       ( -0.5000000 )

 cart.    s( 3) = ( -1.0000000  0.0000000  0.0000000 )    f =( -0.5000000 )
                  (  0.0000000  1.0000000  0.0000000 )       ( -0.5000000 )
                  (  0.0000000  0.0000000 -1.0000000 )       ( -0.3358549 )


      isym =  4     180 deg rotation - cart. axis [1,0,0]        

 cryst.   s( 4) = (     1          0          0      )    f =( -0.5000000 )
                  (     0         -1          0      )       ( -0.5000000 )
                  (     0          0         -1      )       ( -0.5000000 )

 cart.    s( 4) = (  1.0000000  0.0000000  0.0000000 )    f =( -0.5000000 )
                  (  0.0000000 -1.0000000  0.0000000 )       ( -0.5000000 )
                  (  0.0000000  0.0000000 -1.0000000 )       ( -0.3358549 )


      isym =  5     180 deg rotation - cart. axis [1,1,0]        

 cryst.   s( 5) = (     0          1          0      )
                  (     1          0          0      )
                  (     0          0         -1      )

 cart.    s( 5) = (  0.0000000  1.0000000  0.0000000 )
                  (  1.0000000  0.0000000  0.0000000 )
                  (  0.0000000  0.0000000 -1.0000000 )


      isym =  6     180 deg rotation - cart. axis [1,-1,0]       

 cryst.   s( 6) = (     0         -1          0      )
                  (    -1          0          0      )
                  (     0          0         -1      )

 cart.    s( 6) = (  0.0000000 -1.0000000  0.0000000 )
                  ( -1.0000000  0.0000000  0.0000000 )
                  (  0.0000000  0.0000000 -1.0000000 )


      isym =  7      90 deg rotation - cart. axis [0,0,-1]       

 cryst.   s( 7) = (     0         -1          0      )    f =( -0.5000000 )
                  (     1          0          0      )       ( -0.5000000 )
                  (     0          0          1      )       ( -0.5000000 )

 cart.    s( 7) = (  0.0000000  1.0000000  0.0000000 )    f =( -0.5000000 )
                  ( -1.0000000  0.0000000  0.0000000 )       ( -0.5000000 )
                  (  0.0000000  0.0000000  1.0000000 )       ( -0.3358549 )


      isym =  8      90 deg rotation - cart. axis [0,0,1]        

 cryst.   s( 8) = (     0          1          0      )    f =( -0.5000000 )
                  (    -1          0          0      )       ( -0.5000000 )
                  (     0          0          1      )       ( -0.5000000 )

 cart.    s( 8) = (  0.0000000 -1.0000000  0.0000000 )    f =( -0.5000000 )
                  (  1.0000000  0.0000000  0.0000000 )       ( -0.5000000 )
                  (  0.0000000  0.0000000  1.0000000 )       ( -0.3358549 )


      isym =  9     inversion                                    

 cryst.   s( 9) = (    -1          0          0      )
                  (     0         -1          0      )
                  (     0          0         -1      )

 cart.    s( 9) = ( -1.0000000  0.0000000  0.0000000 )
                  (  0.0000000 -1.0000000  0.0000000 )
                  (  0.0000000  0.0000000 -1.0000000 )


      isym = 10     inv. 180 deg rotation - cart. axis [0,0,1]   

 cryst.   s(10) = (     1          0          0      )
                  (     0          1          0      )
                  (     0          0         -1      )

 cart.    s(10) = (  1.0000000  0.0000000  0.0000000 )
                  (  0.0000000  1.0000000  0.0000000 )
                  (  0.0000000  0.0000000 -1.0000000 )


      isym = 11     inv. 180 deg rotation - cart. axis [0,1,0]   

 cryst.   s(11) = (     1          0          0      )    f =( -0.5000000 )
                  (     0         -1          0      )       ( -0.5000000 )
                  (     0          0          1      )       ( -0.5000000 )

 cart.    s(11) = (  1.0000000  0.0000000  0.0000000 )    f =( -0.5000000 )
                  (  0.0000000 -1.0000000  0.0000000 )       ( -0.5000000 )
                  (  0.0000000  0.0000000  1.0000000 )       ( -0.3358549 )


      isym = 12     inv. 180 deg rotation - cart. axis [1,0,0]   

 cryst.   s(12) = (    -1          0          0      )    f =( -0.5000000 )
                  (     0          1          0      )       ( -0.5000000 )
                  (     0          0          1      )       ( -0.5000000 )

 cart.    s(12) = ( -1.0000000  0.0000000  0.0000000 )    f =( -0.5000000 )
                  (  0.0000000  1.0000000  0.0000000 )       ( -0.5000000 )
                  (  0.0000000  0.0000000  1.0000000 )       ( -0.3358549 )


      isym = 13     inv. 180 deg rotation - cart. axis [1,1,0]   

 cryst.   s(13) = (     0         -1          0      )
                  (    -1          0          0      )
                  (     0          0          1      )

 cart.    s(13) = (  0.0000000 -1.0000000  0.0000000 )
                  ( -1.0000000  0.0000000  0.0000000 )
                  (  0.0000000  0.0000000  1.0000000 )


      isym = 14     inv. 180 deg rotation - cart. axis [1,-1,0]  

 cryst.   s(14) = (     0          1          0      )
                  (     1          0          0      )
                  (     0          0          1      )

 cart.    s(14) = (  0.0000000  1.0000000  0.0000000 )
                  (  1.0000000  0.0000000  0.0000000 )
                  (  0.0000000  0.0000000  1.0000000 )


      isym = 15     inv.  90 deg rotation - cart. axis [0,0,-1]  

 cryst.   s(15) = (     0          1          0      )    f =( -0.5000000 )
                  (    -1          0          0      )       ( -0.5000000 )
                  (     0          0         -1      )       ( -0.5000000 )

 cart.    s(15) = (  0.0000000 -1.0000000  0.0000000 )    f =( -0.5000000 )
                  (  1.0000000  0.0000000  0.0000000 )       ( -0.5000000 )
                  (  0.0000000  0.0000000 -1.0000000 )       ( -0.3358549 )


      isym = 16     inv.  90 deg rotation - cart. axis [0,0,1]   

 cryst.   s(16) = (     0         -1          0      )    f =( -0.5000000 )
                  (     1          0          0      )       ( -0.5000000 )
                  (     0          0         -1      )       ( -0.5000000 )

 cart.    s(16) = (  0.0000000  1.0000000  0.0000000 )    f =( -0.5000000 )
                  ( -1.0000000  0.0000000  0.0000000 )       ( -0.5000000 )
                  (  0.0000000  0.0000000 -1.0000000 )       ( -0.3358549 )


     point group D_4h(4/mmm)
     there are 10 classes
     the character table:

       E     2C4   C2    2C2'  2C2'' i     2S4   s_h   2s_v  2s_d 
A_1g   1.00  1.00  1.00  1.00  1.00  1.00  1.00  1.00  1.00  1.00
A_2g   1.00  1.00  1.00 -1.00 -1.00  1.00  1.00  1.00 -1.00 -1.00
B_1g   1.00 -1.00  1.00  1.00 -1.00  1.00 -1.00  1.00  1.00 -1.00
B_2g   1.00 -1.00  1.00 -1.00  1.00  1.00 -1.00  1.00 -1.00  1.00
E_g    2.00  0.00 -2.00  0.00  0.00  2.00  0.00 -2.00  0.00  0.00
A_1u   1.00  1.00  1.00  1.00  1.00 -1.00 -1.00 -1.00 -1.00 -1.00
A_2u   1.00  1.00  1.00 -1.00 -1.00 -1.00 -1.00 -1.00  1.00  1.00
B_1u   1.00 -1.00  1.00  1.00 -1.00 -1.00  1.00 -1.00 -1.00  1.00
B_2u   1.00 -1.00  1.00 -1.00  1.00 -1.00  1.00 -1.00  1.00 -1.00
E_u    2.00  0.00 -2.00  0.00  0.00 -2.00  0.00  2.00  0.00  0.00

     the symmetry operations in each class and the name of the first element:

     E        1
          identity                                               
     2C4      7    8
           90 deg rotation - cart. axis [0,0,-1]                 
     C2       2
          180 deg rotation - cart. axis [0,0,1]                  
     2C2'     3    4
          180 deg rotation - cart. axis [0,1,0]                  
     2C2''    5    6
          180 deg rotation - cart. axis [1,1,0]                  
     i        9
          inversion                                              
     2S4     15   16
          inv.  90 deg rotation - cart. axis [0,0,-1]            
     s_h     10
          inv. 180 deg rotation - cart. axis [0,0,1]             
     2s_v    11   12
          inv. 180 deg rotation - cart. axis [0,1,0]             
     2s_d    13   14
          inv. 180 deg rotation - cart. axis [1,1,0]             

   Cartesian axes

     site n.     atom                  positions (alat units)
         1           Sn  tau(   1) = (   0.5000000   0.5000000   0.3358549  )
         2           Sn  tau(   2) = (   0.0000000   0.0000000   0.0000000  )
         3           O   tau(   3) = (   0.1934713   0.8065287   0.3358549  )
         4           O   tau(   4) = (   0.8065287   0.1934713   0.3358549  )
         5           O   tau(   5) = (   0.3065287   0.3065287   0.0000000  )
         6           O   tau(   6) = (   0.6934713   0.6934713   0.0000000  )

   Crystallographic axes

     site n.     atom                  positions (cryst. coord.)
         1           Sn  tau(   1) = (  0.5000000  0.5000000  0.5000000  )
         2           Sn  tau(   2) = (  0.0000000  0.0000000  0.0000000  )
         3           O   tau(   3) = (  0.1934713  0.8065287  0.5000000  )
         4           O   tau(   4) = (  0.8065287  0.1934713  0.5000000  )
         5           O   tau(   5) = (  0.3065287  0.3065287  0.0000000  )
         6           O   tau(   6) = (  0.6934713  0.6934713  0.0000000  )

     number of k points=   126
                       cart. coord. in units 2pi/alat
        k(    1) = (   0.0000000   0.0000000   0.0000000), wk =   0.0020000
        k(    2) = (   0.0000000   0.0000000   0.1488738), wk =   0.0040000
        k(    3) = (   0.0000000   0.0000000   0.2977476), wk =   0.0040000
        k(    4) = (   0.0000000   0.0000000   0.4466215), wk =   0.0040000
        k(    5) = (   0.0000000   0.0000000   0.5954953), wk =   0.0040000
        k(    6) = (   0.0000000   0.0000000  -0.7443691), wk =   0.0020000
        k(    7) = (   0.0000000   0.1000000   0.0000000), wk =   0.0080000
        k(    8) = (   0.0000000   0.1000000   0.1488738), wk =   0.0160000
        k(    9) = (   0.0000000   0.1000000   0.2977476), wk =   0.0160000
        k(   10) = (   0.0000000   0.1000000   0.4466215), wk =   0.0160000
        k(   11) = (   0.0000000   0.1000000   0.5954953), wk =   0.0160000
        k(   12) = (   0.0000000   0.1000000  -0.7443691), wk =   0.0080000
        k(   13) = (   0.0000000   0.2000000   0.0000000), wk =   0.0080000
        k(   14) = (   0.0000000   0.2000000   0.1488738), wk =   0.0160000
        k(   15) = (   0.0000000   0.2000000   0.2977476), wk =   0.0160000
        k(   16) = (   0.0000000   0.2000000   0.4466215), wk =   0.0160000
        k(   17) = (   0.0000000   0.2000000   0.5954953), wk =   0.0160000
        k(   18) = (   0.0000000   0.2000000  -0.7443691), wk =   0.0080000
        k(   19) = (   0.0000000   0.3000000   0.0000000), wk =   0.0080000
        k(   20) = (   0.0000000   0.3000000   0.1488738), wk =   0.0160000
        k(   21) = (   0.0000000   0.3000000   0.2977476), wk =   0.0160000
        k(   22) = (   0.0000000   0.3000000   0.4466215), wk =   0.0160000
        k(   23) = (   0.0000000   0.3000000   0.5954953), wk =   0.0160000
        k(   24) = (   0.0000000   0.3000000  -0.7443691), wk =   0.0080000
        k(   25) = (   0.0000000   0.4000000   0.0000000), wk =   0.0080000
        k(   26) = (   0.0000000   0.4000000   0.1488738), wk =   0.0160000
        k(   27) = (   0.0000000   0.4000000   0.2977476), wk =   0.0160000
        k(   28) = (   0.0000000   0.4000000   0.4466215), wk =   0.0160000
        k(   29) = (   0.0000000   0.4000000   0.5954953), wk =   0.0160000
        k(   30) = (   0.0000000   0.4000000  -0.7443691), wk =   0.0080000
        k(   31) = (   0.0000000  -0.5000000   0.0000000), wk =   0.0040000
        k(   32) = (   0.0000000  -0.5000000   0.1488738), wk =   0.0080000
        k(   33) = (   0.0000000  -0.5000000   0.2977476), wk =   0.0080000
        k(   34) = (   0.0000000  -0.5000000   0.4466215), wk =   0.0080000
        k(   35) = (   0.0000000  -0.5000000   0.5954953), wk =   0.0080000
        k(   36) = (   0.0000000  -0.5000000  -0.7443691), wk =   0.0040000
        k(   37) = (   0.1000000   0.1000000   0.0000000), wk =   0.0080000
        k(   38) = (   0.1000000   0.1000000   0.1488738), wk =   0.0160000
        k(   39) = (   0.1000000   0.1000000   0.2977476), wk =   0.0160000
        k(   40) = (   0.1000000   0.1000000   0.4466215), wk =   0.0160000
        k(   41) = (   0.1000000   0.1000000   0.5954953), wk =   0.0160000
        k(   42) = (   0.1000000   0.1000000  -0.7443691), wk =   0.0080000
        k(   43) = (   0.1000000   0.2000000   0.0000000), wk =   0.0160000
        k(   44) = (   0.1000000   0.2000000   0.1488738), wk =   0.0320000
        k(   45) = (   0.1000000   0.2000000   0.2977476), wk =   0.0320000
        k(   46) = (   0.1000000   0.2000000   0.4466215), wk =   0.0320000
        k(   47) = (   0.1000000   0.2000000   0.5954953), wk =   0.0320000
        k(   48) = (   0.1000000   0.2000000  -0.7443691), wk =   0.0160000
        k(   49) = (   0.1000000   0.3000000   0.0000000), wk =   0.0160000
        k(   50) = (   0.1000000   0.3000000   0.1488738), wk =   0.0320000
        k(   51) = (   0.1000000   0.3000000   0.2977476), wk =   0.0320000
        k(   52) = (   0.1000000   0.3000000   0.4466215), wk =   0.0320000
        k(   53) = (   0.1000000   0.3000000   0.5954953), wk =   0.0320000
        k(   54) = (   0.1000000   0.3000000  -0.7443691), wk =   0.0160000
        k(   55) = (   0.1000000   0.4000000   0.0000000), wk =   0.0160000
        k(   56) = (   0.1000000   0.4000000   0.1488738), wk =   0.0320000
        k(   57) = (   0.1000000   0.4000000   0.2977476), wk =   0.0320000
        k(   58) = (   0.1000000   0.4000000   0.4466215), wk =   0.0320000
        k(   59) = (   0.1000000   0.4000000   0.5954953), wk =   0.0320000
        k(   60) = (   0.1000000   0.4000000  -0.7443691), wk =   0.0160000
        k(   61) = (   0.1000000  -0.5000000   0.0000000), wk =   0.0080000
        k(   62) = (   0.1000000  -0.5000000   0.1488738), wk =   0.0160000
        k(   63) = (   0.1000000  -0.5000000   0.2977476), wk =   0.0160000
        k(   64) = (   0.1000000  -0.5000000   0.4466215), wk =   0.0160000
        k(   65) = (   0.1000000  -0.5000000   0.5954953), wk =   0.0160000
        k(   66) = (   0.1000000  -0.5000000  -0.7443691), wk =   0.0080000
        k(   67) = (   0.2000000   0.2000000   0.0000000), wk =   0.0080000
        k(   68) = (   0.2000000   0.2000000   0.1488738), wk =   0.0160000
        k(   69) = (   0.2000000   0.2000000   0.2977476), wk =   0.0160000
        k(   70) = (   0.2000000   0.2000000   0.4466215), wk =   0.0160000
        k(   71) = (   0.2000000   0.2000000   0.5954953), wk =   0.0160000
        k(   72) = (   0.2000000   0.2000000  -0.7443691), wk =   0.0080000
        k(   73) = (   0.2000000   0.3000000   0.0000000), wk =   0.0160000
        k(   74) = (   0.2000000   0.3000000   0.1488738), wk =   0.0320000
        k(   75) = (   0.2000000   0.3000000   0.2977476), wk =   0.0320000
        k(   76) = (   0.2000000   0.3000000   0.4466215), wk =   0.0320000
        k(   77) = (   0.2000000   0.3000000   0.5954953), wk =   0.0320000
        k(   78) = (   0.2000000   0.3000000  -0.7443691), wk =   0.0160000
        k(   79) = (   0.2000000   0.4000000   0.0000000), wk =   0.0160000
        k(   80) = (   0.2000000   0.4000000   0.1488738), wk =   0.0320000
        k(   81) = (   0.2000000   0.4000000   0.2977476), wk =   0.0320000
        k(   82) = (   0.2000000   0.4000000   0.4466215), wk =   0.0320000
        k(   83) = (   0.2000000   0.4000000   0.5954953), wk =   0.0320000
        k(   84) = (   0.2000000   0.4000000  -0.7443691), wk =   0.0160000
        k(   85) = (   0.2000000  -0.5000000   0.0000000), wk =   0.0080000
        k(   86) = (   0.2000000  -0.5000000   0.1488738), wk =   0.0160000
        k(   87) = (   0.2000000  -0.5000000   0.2977476), wk =   0.0160000
        k(   88) = (   0.2000000  -0.5000000   0.4466215), wk =   0.0160000
        k(   89) = (   0.2000000  -0.5000000   0.5954953), wk =   0.0160000
        k(   90) = (   0.2000000  -0.5000000  -0.7443691), wk =   0.0080000
        k(   91) = (   0.3000000   0.3000000   0.0000000), wk =   0.0080000
        k(   92) = (   0.3000000   0.3000000   0.1488738), wk =   0.0160000
        k(   93) = (   0.3000000   0.3000000   0.2977476), wk =   0.0160000
        k(   94) = (   0.3000000   0.3000000   0.4466215), wk =   0.0160000
        k(   95) = (   0.3000000   0.3000000   0.5954953), wk =   0.0160000
        k(   96) = (   0.3000000   0.3000000  -0.7443691), wk =   0.0080000
        k(   97) = (   0.3000000   0.4000000   0.0000000), wk =   0.0160000
        k(   98) = (   0.3000000   0.4000000   0.1488738), wk =   0.0320000
        k(   99) = (   0.3000000   0.4000000   0.2977476), wk =   0.0320000
        k(  100) = (   0.3000000   0.4000000   0.4466215), wk =   0.0320000
        k(  101) = (   0.3000000   0.4000000   0.5954953), wk =   0.0320000
        k(  102) = (   0.3000000   0.4000000  -0.7443691), wk =   0.0160000
        k(  103) = (   0.3000000  -0.5000000   0.0000000), wk =   0.0080000
        k(  104) = (   0.3000000  -0.5000000   0.1488738), wk =   0.0160000
        k(  105) = (   0.3000000  -0.5000000   0.2977476), wk =   0.0160000
        k(  106) = (   0.3000000  -0.5000000   0.4466215), wk =   0.0160000
        k(  107) = (   0.3000000  -0.5000000   0.5954953), wk =   0.0160000
        k(  108) = (   0.3000000  -0.5000000  -0.7443691), wk =   0.0080000
        k(  109) = (   0.4000000   0.4000000   0.0000000), wk =   0.0080000
        k(  110) = (   0.4000000   0.4000000   0.1488738), wk =   0.0160000
        k(  111) = (   0.4000000   0.4000000   0.2977476), wk =   0.0160000
        k(  112) = (   0.4000000   0.4000000   0.4466215), wk =   0.0160000
        k(  113) = (   0.4000000   0.4000000   0.5954953), wk =   0.0160000
        k(  114) = (   0.4000000   0.4000000  -0.7443691), wk =   0.0080000
        k(  115) = (   0.4000000  -0.5000000   0.0000000), wk =   0.0080000
        k(  116) = (   0.4000000  -0.5000000   0.1488738), wk =   0.0160000
        k(  117) = (   0.4000000  -0.5000000   0.2977476), wk =   0.0160000
        k(  118) = (   0.4000000  -0.5000000   0.4466215), wk =   0.0160000
        k(  119) = (   0.4000000  -0.5000000   0.5954953), wk =   0.0160000
        k(  120) = (   0.4000000  -0.5000000  -0.7443691), wk =   0.0080000
        k(  121) = (  -0.5000000  -0.5000000   0.0000000), wk =   0.0020000
        k(  122) = (  -0.5000000  -0.5000000   0.1488738), wk =   0.0040000
        k(  123) = (  -0.5000000  -0.5000000   0.2977476), wk =   0.0040000
        k(  124) = (  -0.5000000  -0.5000000   0.4466215), wk =   0.0040000
        k(  125) = (  -0.5000000  -0.5000000   0.5954953), wk =   0.0040000
        k(  126) = (  -0.5000000  -0.5000000  -0.7443691), wk =   0.0020000

                       cryst. coord.
        k(    1) = (   0.0000000   0.0000000   0.0000000), wk =   0.0020000
        k(    2) = (   0.0000000   0.0000000   0.1000000), wk =   0.0040000
        k(    3) = (   0.0000000   0.0000000   0.2000000), wk =   0.0040000
        k(    4) = (   0.0000000   0.0000000   0.3000000), wk =   0.0040000
        k(    5) = (   0.0000000   0.0000000   0.4000000), wk =   0.0040000
        k(    6) = (   0.0000000   0.0000000  -0.5000000), wk =   0.0020000
        k(    7) = (   0.0000000   0.1000000   0.0000000), wk =   0.0080000
        k(    8) = (   0.0000000   0.1000000   0.1000000), wk =   0.0160000
        k(    9) = (   0.0000000   0.1000000   0.2000000), wk =   0.0160000
        k(   10) = (   0.0000000   0.1000000   0.3000000), wk =   0.0160000
        k(   11) = (   0.0000000   0.1000000   0.4000000), wk =   0.0160000
        k(   12) = (   0.0000000   0.1000000  -0.5000000), wk =   0.0080000
        k(   13) = (   0.0000000   0.2000000   0.0000000), wk =   0.0080000
        k(   14) = (   0.0000000   0.2000000   0.1000000), wk =   0.0160000
        k(   15) = (   0.0000000   0.2000000   0.2000000), wk =   0.0160000
        k(   16) = (   0.0000000   0.2000000   0.3000000), wk =   0.0160000
        k(   17) = (   0.0000000   0.2000000   0.4000000), wk =   0.0160000
        k(   18) = (   0.0000000   0.2000000  -0.5000000), wk =   0.0080000
        k(   19) = (   0.0000000   0.3000000   0.0000000), wk =   0.0080000
        k(   20) = (   0.0000000   0.3000000   0.1000000), wk =   0.0160000
        k(   21) = (   0.0000000   0.3000000   0.2000000), wk =   0.0160000
        k(   22) = (   0.0000000   0.3000000   0.3000000), wk =   0.0160000
        k(   23) = (   0.0000000   0.3000000   0.4000000), wk =   0.0160000
        k(   24) = (   0.0000000   0.3000000  -0.5000000), wk =   0.0080000
        k(   25) = (   0.0000000   0.4000000   0.0000000), wk =   0.0080000
        k(   26) = (   0.0000000   0.4000000   0.1000000), wk =   0.0160000
        k(   27) = (   0.0000000   0.4000000   0.2000000), wk =   0.0160000
        k(   28) = (   0.0000000   0.4000000   0.3000000), wk =   0.0160000
        k(   29) = (   0.0000000   0.4000000   0.4000000), wk =   0.0160000
        k(   30) = (   0.0000000   0.4000000  -0.5000000), wk =   0.0080000
        k(   31) = (   0.0000000  -0.5000000   0.0000000), wk =   0.0040000
        k(   32) = (   0.0000000  -0.5000000   0.1000000), wk =   0.0080000
        k(   33) = (   0.0000000  -0.5000000   0.2000000), wk =   0.0080000
        k(   34) = (   0.0000000  -0.5000000   0.3000000), wk =   0.0080000
        k(   35) = (   0.0000000  -0.5000000   0.4000000), wk =   0.0080000
        k(   36) = (   0.0000000  -0.5000000  -0.5000000), wk =   0.0040000
        k(   37) = (   0.1000000   0.1000000   0.0000000), wk =   0.0080000
        k(   38) = (   0.1000000   0.1000000   0.1000000), wk =   0.0160000
        k(   39) = (   0.1000000   0.1000000   0.2000000), wk =   0.0160000
        k(   40) = (   0.1000000   0.1000000   0.3000000), wk =   0.0160000
        k(   41) = (   0.1000000   0.1000000   0.4000000), wk =   0.0160000
        k(   42) = (   0.1000000   0.1000000  -0.5000000), wk =   0.0080000
        k(   43) = (   0.1000000   0.2000000   0.0000000), wk =   0.0160000
        k(   44) = (   0.1000000   0.2000000   0.1000000), wk =   0.0320000
        k(   45) = (   0.1000000   0.2000000   0.2000000), wk =   0.0320000
        k(   46) = (   0.1000000   0.2000000   0.3000000), wk =   0.0320000
        k(   47) = (   0.1000000   0.2000000   0.4000000), wk =   0.0320000
        k(   48) = (   0.1000000   0.2000000  -0.5000000), wk =   0.0160000
        k(   49) = (   0.1000000   0.3000000   0.0000000), wk =   0.0160000
        k(   50) = (   0.1000000   0.3000000   0.1000000), wk =   0.0320000
        k(   51) = (   0.1000000   0.3000000   0.2000000), wk =   0.0320000
        k(   52) = (   0.1000000   0.3000000   0.3000000), wk =   0.0320000
        k(   53) = (   0.1000000   0.3000000   0.4000000), wk =   0.0320000
        k(   54) = (   0.1000000   0.3000000  -0.5000000), wk =   0.0160000
        k(   55) = (   0.1000000   0.4000000   0.0000000), wk =   0.0160000
        k(   56) = (   0.1000000   0.4000000   0.1000000), wk =   0.0320000
        k(   57) = (   0.1000000   0.4000000   0.2000000), wk =   0.0320000
        k(   58) = (   0.1000000   0.4000000   0.3000000), wk =   0.0320000
        k(   59) = (   0.1000000   0.4000000   0.4000000), wk =   0.0320000
        k(   60) = (   0.1000000   0.4000000  -0.5000000), wk =   0.0160000
        k(   61) = (   0.1000000  -0.5000000   0.0000000), wk =   0.0080000
        k(   62) = (   0.1000000  -0.5000000   0.1000000), wk =   0.0160000
        k(   63) = (   0.1000000  -0.5000000   0.2000000), wk =   0.0160000
        k(   64) = (   0.1000000  -0.5000000   0.3000000), wk =   0.0160000
        k(   65) = (   0.1000000  -0.5000000   0.4000000), wk =   0.0160000
        k(   66) = (   0.1000000  -0.5000000  -0.5000000), wk =   0.0080000
        k(   67) = (   0.2000000   0.2000000   0.0000000), wk =   0.0080000
        k(   68) = (   0.2000000   0.2000000   0.1000000), wk =   0.0160000
        k(   69) = (   0.2000000   0.2000000   0.2000000), wk =   0.0160000
        k(   70) = (   0.2000000   0.2000000   0.3000000), wk =   0.0160000
        k(   71) = (   0.2000000   0.2000000   0.4000000), wk =   0.0160000
        k(   72) = (   0.2000000   0.2000000  -0.5000000), wk =   0.0080000
        k(   73) = (   0.2000000   0.3000000   0.0000000), wk =   0.0160000
        k(   74) = (   0.2000000   0.3000000   0.1000000), wk =   0.0320000
        k(   75) = (   0.2000000   0.3000000   0.2000000), wk =   0.0320000
        k(   76) = (   0.2000000   0.3000000   0.3000000), wk =   0.0320000
        k(   77) = (   0.2000000   0.3000000   0.4000000), wk =   0.0320000
        k(   78) = (   0.2000000   0.3000000  -0.5000000), wk =   0.0160000
        k(   79) = (   0.2000000   0.4000000   0.0000000), wk =   0.0160000
        k(   80) = (   0.2000000   0.4000000   0.1000000), wk =   0.0320000
        k(   81) = (   0.2000000   0.4000000   0.2000000), wk =   0.0320000
        k(   82) = (   0.2000000   0.4000000   0.3000000), wk =   0.0320000
        k(   83) = (   0.2000000   0.4000000   0.4000000), wk =   0.0320000
        k(   84) = (   0.2000000   0.4000000  -0.5000000), wk =   0.0160000
        k(   85) = (   0.2000000  -0.5000000   0.0000000), wk =   0.0080000
        k(   86) = (   0.2000000  -0.5000000   0.1000000), wk =   0.0160000
        k(   87) = (   0.2000000  -0.5000000   0.2000000), wk =   0.0160000
        k(   88) = (   0.2000000  -0.5000000   0.3000000), wk =   0.0160000
        k(   89) = (   0.2000000  -0.5000000   0.4000000), wk =   0.0160000
        k(   90) = (   0.2000000  -0.5000000  -0.5000000), wk =   0.0080000
        k(   91) = (   0.3000000   0.3000000   0.0000000), wk =   0.0080000
        k(   92) = (   0.3000000   0.3000000   0.1000000), wk =   0.0160000
        k(   93) = (   0.3000000   0.3000000   0.2000000), wk =   0.0160000
        k(   94) = (   0.3000000   0.3000000   0.3000000), wk =   0.0160000
        k(   95) = (   0.3000000   0.3000000   0.4000000), wk =   0.0160000
        k(   96) = (   0.3000000   0.3000000  -0.5000000), wk =   0.0080000
        k(   97) = (   0.3000000   0.4000000   0.0000000), wk =   0.0160000
        k(   98) = (   0.3000000   0.4000000   0.1000000), wk =   0.0320000
        k(   99) = (   0.3000000   0.4000000   0.2000000), wk =   0.0320000
        k(  100) = (   0.3000000   0.4000000   0.3000000), wk =   0.0320000
        k(  101) = (   0.3000000   0.4000000   0.4000000), wk =   0.0320000
        k(  102) = (   0.3000000   0.4000000  -0.5000000), wk =   0.0160000
        k(  103) = (   0.3000000  -0.5000000   0.0000000), wk =   0.0080000
        k(  104) = (   0.3000000  -0.5000000   0.1000000), wk =   0.0160000
        k(  105) = (   0.3000000  -0.5000000   0.2000000), wk =   0.0160000
        k(  106) = (   0.3000000  -0.5000000   0.3000000), wk =   0.0160000
        k(  107) = (   0.3000000  -0.5000000   0.4000000), wk =   0.0160000
        k(  108) = (   0.3000000  -0.5000000  -0.5000000), wk =   0.0080000
        k(  109) = (   0.4000000   0.4000000   0.0000000), wk =   0.0080000
        k(  110) = (   0.4000000   0.4000000   0.1000000), wk =   0.0160000
        k(  111) = (   0.4000000   0.4000000   0.2000000), wk =   0.0160000
        k(  112) = (   0.4000000   0.4000000   0.3000000), wk =   0.0160000
        k(  113) = (   0.4000000   0.4000000   0.4000000), wk =   0.0160000
        k(  114) = (   0.4000000   0.4000000  -0.5000000), wk =   0.0080000
        k(  115) = (   0.4000000  -0.5000000   0.0000000), wk =   0.0080000
        k(  116) = (   0.4000000  -0.5000000   0.1000000), wk =   0.0160000
        k(  117) = (   0.4000000  -0.5000000   0.2000000), wk =   0.0160000
        k(  118) = (   0.4000000  -0.5000000   0.3000000), wk =   0.0160000
        k(  119) = (   0.4000000  -0.5000000   0.4000000), wk =   0.0160000
        k(  120) = (   0.4000000  -0.5000000  -0.5000000), wk =   0.0080000
        k(  121) = (  -0.5000000  -0.5000000   0.0000000), wk =   0.0020000
        k(  122) = (  -0.5000000  -0.5000000   0.1000000), wk =   0.0040000
        k(  123) = (  -0.5000000  -0.5000000   0.2000000), wk =   0.0040000
        k(  124) = (  -0.5000000  -0.5000000   0.3000000), wk =   0.0040000
        k(  125) = (  -0.5000000  -0.5000000   0.4000000), wk =   0.0040000
        k(  126) = (  -0.5000000  -0.5000000  -0.5000000), wk =   0.0020000

     Dense  grid:    91239 G-vectors     FFT dimensions: (  64,  64,  48)

     Dynamical RAM for                 wfc:       0.28 MB

     Dynamical RAM for     wfc (w. buffer):       4.80 MB

     Dynamical RAM for           str. fact:       0.17 MB

     Dynamical RAM for           local pot:       0.00 MB

     Dynamical RAM for          nlocal pot:       0.74 MB

     Dynamical RAM for                qrad:       3.52 MB

     Dynamical RAM for          rho,v,vnew:       0.54 MB

     Dynamical RAM for               rhoin:       0.18 MB

     Dynamical RAM for            rho*nmix:       1.39 MB

     Dynamical RAM for           G-vectors:       0.37 MB

     Dynamical RAM for          h,s,v(r/c):       0.12 MB

     Dynamical RAM for          <psi|beta>:       0.03 MB

     Dynamical RAM for                 psi:       0.56 MB

     Dynamical RAM for                hpsi:       0.56 MB

     Dynamical RAM for                spsi:       0.56 MB

     Dynamical RAM for      wfcinit/wfcrot:       0.77 MB

     Dynamical RAM for           addusdens:       2.14 MB

     Dynamical RAM for          addusforce:       2.19 MB

     Dynamical RAM for         addusstress:       2.22 MB

     Estimated static dynamical RAM per process >      11.05 MB

     Estimated max dynamical RAM per process >      14.67 MB

     Estimated total dynamical RAM >       1.68 GB

     Initial potential from superposition of free atoms

     starting charge      49.9999, renormalised to      52.0000


     %%%%%%%%%%%%%%%%%%%%%%%%%%%%%%%%%%%%%%%%%%%%%%%%%%%%%%%%%%%%%%%%%%%%%%%%
     %                                                                      %
     % You are using vdW-DF, which was implemented by the Thonhauser group. %
     % Please cite the following two papers that made this development      %
     % possible and the two reviews that describe the various versions:     %
     %                                                                      %
     %   T. Thonhauser et al., PRL 115, 136402 (2015).                      %
     %   T. Thonhauser et al., PRB 76, 125112 (2007).                       %
     %   K. Berland et al., Rep. Prog. Phys. 78, 066501 (2015).             %
     %   D.C. Langreth et al., J. Phys.: Condens. Matter 21, 084203 (2009). %
     %                                                                      %
     % If you are calculating stress with vdW-DF, please also cite:         %
     %                                                                      %
     %   R. Sabatini et al., J. Phys.: Condens. Matter 24, 424209 (2012).   %
     %                                                                      %
     %%%%%%%%%%%%%%%%%%%%%%%%%%%%%%%%%%%%%%%%%%%%%%%%%%%%%%%%%%%%%%%%%%%%%%%%

     %%%%%%%%%%%%%%%%%%%%%%%%%%%%%%%%%%%%%%%%%%%%%%%%%%%%%%%%%%%%%%%%%%%%%%%%
     %                                                                      %
     %  vdW-DF NEWS:                                                        %
     %                                                                      %
     %  * vdW-DF3 is now available. DOI: 10.1021/acs.jctc.0c00471           %
     %    use with input_dft = 'vdW-DF3-opt1' or 'vdW-DF3-opt2'             %
     %                                                                      %
     %  * Unscreened and range-separated vdW-DF hybrid functionals          %
     %    DOI: 10.1063/1.4986522 and 10.1088/1361-648X/ac2ad2               %
     %    use with input_dft = 'vdW-DF-cx0' (etc) and 'vdW-DF-ahcx'         %
     %                                                                      %
     %%%%%%%%%%%%%%%%%%%%%%%%%%%%%%%%%%%%%%%%%%%%%%%%%%%%%%%%%%%%%%%%%%%%%%%%


     Carrying out vdW-DF run using the following parameters:
     Nqs    =  20  Npoints =  1024  r_max =  100.000
     q_mesh =  0.00001000  0.04494208  0.09755937  0.15916263
               0.23128650  0.31572767  0.41458969  0.53033537
               0.66584808  0.82450364  1.01025438  1.22772762
               1.48234092  1.78043706  2.12944203  2.53805004
               3.01644009  3.57652955  4.23227104  5.00000000


     -----------------------------------------------
     Non-local corr. energy    =       1.20366382 Ry
     -----------------------------------------------

     Starting wfcs are   34 randomized atomic wfcs
     Checking if some PAW data can be deallocated... 
       PAW data deallocated on   44 nodes for type:  2

     total cpu time spent up to now is        1.2 secs

     Self-consistent Calculation

     iteration #  1     ecut=   120.00 Ry     beta= 0.70
     Davidson diagonalization with overlap

---- Real-time Memory Report at c_bands before calling an iterative solver
           144 MiB given to the printing process from OS
             0 MiB allocation reported by mallinfo(arena+hblkhd)
       1949210 MiB available memory on the node where the printing process lives
------------------
     ethr =  1.00E-02,  avg # of iterations =  2.0


     -----------------------------------------------
     Non-local corr. energy    =       1.22759705 Ry
     -----------------------------------------------


     total cpu time spent up to now is        2.0 secs

     total energy              =    -498.75217862 Ry
     estimated scf accuracy    <       2.03375211 Ry

     iteration #  2     ecut=   120.00 Ry     beta= 0.70
     Davidson diagonalization with overlap

---- Real-time Memory Report at c_bands before calling an iterative solver
           154 MiB given to the printing process from OS
             0 MiB allocation reported by mallinfo(arena+hblkhd)
       1948820 MiB available memory on the node where the printing process lives
------------------
     ethr =  3.91E-03,  avg # of iterations =  5.0


     -----------------------------------------------
     Non-local corr. energy    =       1.20576754 Ry
     -----------------------------------------------


     total cpu time spent up to now is        3.2 secs

     total energy              =    -499.37914576 Ry
     estimated scf accuracy    <       1.91484390 Ry

     iteration #  3     ecut=   120.00 Ry     beta= 0.70
     Davidson diagonalization with overlap

---- Real-time Memory Report at c_bands before calling an iterative solver
           155 MiB given to the printing process from OS
             0 MiB allocation reported by mallinfo(arena+hblkhd)
       1948817 MiB available memory on the node where the printing process lives
------------------
     ethr =  3.68E-03,  avg # of iterations =  2.3


     -----------------------------------------------
     Non-local corr. energy    =       1.20729189 Ry
     -----------------------------------------------


     total cpu time spent up to now is        4.2 secs

     total energy              =    -499.70518405 Ry
     estimated scf accuracy    <       0.03915890 Ry

     iteration #  4     ecut=   120.00 Ry     beta= 0.70
     Davidson diagonalization with overlap

---- Real-time Memory Report at c_bands before calling an iterative solver
           156 MiB given to the printing process from OS
             0 MiB allocation reported by mallinfo(arena+hblkhd)
       1948800 MiB available memory on the node where the printing process lives
------------------
     ethr =  7.53E-05,  avg # of iterations =  5.2


     -----------------------------------------------
     Non-local corr. energy    =       1.21472563 Ry
     -----------------------------------------------


     total cpu time spent up to now is        5.5 secs

     total energy              =    -499.73802873 Ry
     estimated scf accuracy    <       0.05950651 Ry

     iteration #  5     ecut=   120.00 Ry     beta= 0.70
     Davidson diagonalization with overlap

---- Real-time Memory Report at c_bands before calling an iterative solver
           156 MiB given to the printing process from OS
             0 MiB allocation reported by mallinfo(arena+hblkhd)
       1948803 MiB available memory on the node where the printing process lives
------------------
     ethr =  7.53E-05,  avg # of iterations =  4.0


     -----------------------------------------------
     Non-local corr. energy    =       1.21422224 Ry
     -----------------------------------------------


     total cpu time spent up to now is        6.6 secs

     total energy              =    -499.75463057 Ry
     estimated scf accuracy    <       0.00260690 Ry

     iteration #  6     ecut=   120.00 Ry     beta= 0.70
     Davidson diagonalization with overlap

---- Real-time Memory Report at c_bands before calling an iterative solver
           156 MiB given to the printing process from OS
             0 MiB allocation reported by mallinfo(arena+hblkhd)
       1948770 MiB available memory on the node where the printing process lives
------------------
     ethr =  5.01E-06,  avg # of iterations =  2.0


     -----------------------------------------------
     Non-local corr. energy    =       1.21338990 Ry
     -----------------------------------------------


     total cpu time spent up to now is        7.4 secs

     total energy              =    -499.75465376 Ry
     estimated scf accuracy    <       0.00038952 Ry

     iteration #  7     ecut=   120.00 Ry     beta= 0.70
     Davidson diagonalization with overlap

---- Real-time Memory Report at c_bands before calling an iterative solver
           157 MiB given to the printing process from OS
             0 MiB allocation reported by mallinfo(arena+hblkhd)
       1948667 MiB available memory on the node where the printing process lives
------------------
     ethr =  7.49E-07,  avg # of iterations =  4.1


     -----------------------------------------------
     Non-local corr. energy    =       1.21384136 Ry
     -----------------------------------------------


     total cpu time spent up to now is        8.5 secs

     total energy              =    -499.75483913 Ry
     estimated scf accuracy    <       0.00030509 Ry

     iteration #  8     ecut=   120.00 Ry     beta= 0.70
     Davidson diagonalization with overlap

---- Real-time Memory Report at c_bands before calling an iterative solver
           157 MiB given to the printing process from OS
             0 MiB allocation reported by mallinfo(arena+hblkhd)
       1948760 MiB available memory on the node where the printing process lives
------------------
     ethr =  5.87E-07,  avg # of iterations =  2.0


     -----------------------------------------------
     Non-local corr. energy    =       1.21389586 Ry
     -----------------------------------------------


     total cpu time spent up to now is        9.5 secs

     total energy              =    -499.75487937 Ry
     estimated scf accuracy    <       0.00001344 Ry

     iteration #  9     ecut=   120.00 Ry     beta= 0.70
     Davidson diagonalization with overlap

---- Real-time Memory Report at c_bands before calling an iterative solver
           157 MiB given to the printing process from OS
             0 MiB allocation reported by mallinfo(arena+hblkhd)
       1948752 MiB available memory on the node where the printing process lives
------------------
     ethr =  2.58E-08,  avg # of iterations =  4.1


     -----------------------------------------------
     Non-local corr. energy    =       1.21391944 Ry
     -----------------------------------------------


     total cpu time spent up to now is       10.5 secs

     total energy              =    -499.75488449 Ry
     estimated scf accuracy    <       0.00000002 Ry

     iteration # 10     ecut=   120.00 Ry     beta= 0.70
     Davidson diagonalization with overlap

---- Real-time Memory Report at c_bands before calling an iterative solver
           157 MiB given to the printing process from OS
             0 MiB allocation reported by mallinfo(arena+hblkhd)
       1948711 MiB available memory on the node where the printing process lives
------------------
     ethr =  4.80E-11,  avg # of iterations =  6.5


     -----------------------------------------------
     Non-local corr. energy    =       1.21390349 Ry
     -----------------------------------------------


     total cpu time spent up to now is       12.2 secs

     total energy              =    -499.75488446 Ry
     estimated scf accuracy    <       0.00000087 Ry

     iteration # 11     ecut=   120.00 Ry     beta= 0.70
     Davidson diagonalization with overlap

---- Real-time Memory Report at c_bands before calling an iterative solver
           157 MiB given to the printing process from OS
             0 MiB allocation reported by mallinfo(arena+hblkhd)
       1948732 MiB available memory on the node where the printing process lives
------------------
     ethr =  4.80E-11,  avg # of iterations =  5.2


     -----------------------------------------------
     Non-local corr. energy    =       1.21389571 Ry
     -----------------------------------------------


     total cpu time spent up to now is       13.6 secs

     total energy              =    -499.75488451 Ry
     estimated scf accuracy    <       0.00000008 Ry

     iteration # 12     ecut=   120.00 Ry     beta= 0.70
     Davidson diagonalization with overlap

---- Real-time Memory Report at c_bands before calling an iterative solver
           157 MiB given to the printing process from OS
             0 MiB allocation reported by mallinfo(arena+hblkhd)
       1948675 MiB available memory on the node where the printing process lives
------------------
     ethr =  4.80E-11,  avg # of iterations =  4.2


     -----------------------------------------------
     Non-local corr. energy    =       1.21389652 Ry
     -----------------------------------------------


     total cpu time spent up to now is       14.7 secs

     End of self-consistent calculation

          k = 0.0000 0.0000 0.0000 ( 11437 PWs)   bands (ev):

   -12.9512 -12.3742 -12.2303 -12.1886 -12.1886 -12.1341 -12.1194 -12.0597
   -12.0233 -12.0233 -10.2437  -8.5911  -8.5911  -7.2189   0.5914   4.6381
     4.6381   4.7419   5.6129   6.4579   6.5007   7.1635   7.1635   7.6998
     7.6998   8.3932

     occupation numbers 
     1.0000   1.0000   1.0000   1.0000   1.0000   1.0000   1.0000   1.0000
     1.0000   1.0000   1.0000   1.0000   1.0000   1.0000   1.0000   1.0000
     1.0000   1.0000   1.0000   1.0000   1.0000   1.0000   1.0000   1.0000
     1.0000   1.0000

          k = 0.0000 0.0000 0.1489 ( 11385 PWs)   bands (ev):

   -12.9134 -12.3375 -12.2532 -12.2532 -12.2167 -12.1392 -12.1166 -12.0599
   -12.0332 -12.0332 -10.1877  -8.4738  -8.4738  -7.2799   0.5936   4.6525
     4.7205   4.7205   5.6746   5.7768   6.3831   6.8201   6.8201   7.7183
     7.7183   8.3219

     occupation numbers 
     1.0000   1.0000   1.0000   1.0000   1.0000   1.0000   1.0000   1.0000
     1.0000   1.0000   1.0000   1.0000   1.0000   1.0000   1.0000   1.0000
     1.0000   1.0000   1.0000   1.0000   1.0000   1.0000   1.0000   1.0000
     1.0000   1.0000

          k = 0.0000 0.0000 0.2977 ( 11405 PWs)   bands (ev):

   -12.8099 -12.4117 -12.4117 -12.2535 -12.1784 -12.1495 -12.1090 -12.0607
   -12.0545 -12.0545 -10.0126  -8.1776  -8.1776  -7.4684   0.6172   4.4815
     4.5467   4.9414   4.9414   5.8557   6.0996   6.0996   6.1098   7.6738
     7.6738   8.1144

     occupation numbers 
     1.0000   1.0000   1.0000   1.0000   1.0000   1.0000   1.0000   1.0000
     1.0000   1.0000   1.0000   1.0000   1.0000   1.0000   1.0000   1.0000
     1.0000   1.0000   1.0000   1.0000   1.0000   1.0000   1.0000   1.0000
     1.0000   1.0000

          k = 0.0000 0.0000 0.4466 ( 11410 PWs)   bands (ev):

   -12.6670 -12.5867 -12.5867 -12.2314 -12.1236 -12.1072 -12.0982 -12.0784
   -12.0784 -12.0632  -9.7053  -7.8249  -7.8249  -7.7921   0.7203   3.3402
     4.4031   5.0725   5.0725   5.5420   5.5420   5.7018   6.1442   7.5432
     7.5432   7.7910

     occupation numbers 
     1.0000   1.0000   1.0000   1.0000   1.0000   1.0000   1.0000   1.0000
     1.0000   1.0000   1.0000   1.0000   1.0000   1.0000   1.0000   1.0000
     1.0000   1.0000   1.0000   1.0000   1.0000   1.0000   1.0000   1.0000
     1.0000   1.0000

          k = 0.0000 0.0000 0.5955 ( 11386 PWs)   bands (ev):

   -12.7146 -12.7146 -12.5179 -12.2911 -12.0970 -12.0970 -12.0865 -12.0681
   -12.0678 -12.0456  -9.2719  -8.2383  -7.5446  -7.5446   0.9933   2.3053
     4.5139   4.6596   4.6596   5.2371   5.7415   5.7415   6.5186   7.3632
     7.3632   7.3868

     occupation numbers 
     1.0000   1.0000   1.0000   1.0000   1.0000   1.0000   1.0000   1.0000
     1.0000   1.0000   1.0000   1.0000   1.0000   1.0000   1.0000   1.0000
     1.0000   1.0000   1.0000   1.0000   1.0000   1.0000   1.0000   1.0000
     1.0000   1.0000

          k = 0.0000 0.0000-0.7444 ( 11406 PWs)   bands (ev):

   -12.7609 -12.7609 -12.3884 -12.3884 -12.1040 -12.1040 -12.0760 -12.0760
   -12.0339 -12.0339  -8.7574  -8.7574  -7.4378  -7.4378   1.5134   1.5134
     4.4676   4.4676   4.8118   4.8118   5.8938   5.8938   6.9468   6.9468
     7.2619   7.2619

     occupation numbers 
     1.0000   1.0000   1.0000   1.0000   1.0000   1.0000   1.0000   1.0000
     1.0000   1.0000   1.0000   1.0000   1.0000   1.0000   1.0000   1.0000
     1.0000   1.0000   1.0000   1.0000   1.0000   1.0000   1.0000   1.0000
     1.0000   1.0000

          k = 0.0000 0.1000 0.0000 ( 11386 PWs)   bands (ev):

   -12.9389 -12.3861 -12.2299 -12.1880 -12.1880 -12.1443 -12.1177 -12.0609
   -12.0239 -12.0239 -10.2140  -8.6508  -8.5469  -7.2352   0.6573   4.4334
     4.6805   4.7763   5.6633   6.4371   6.5504   7.1669   7.1773   7.4408
     7.7050   8.3476

     occupation numbers 
     1.0000   1.0000   1.0000   1.0000   1.0000   1.0000   1.0000   1.0000
     1.0000   1.0000   1.0000   1.0000   1.0000   1.0000   1.0000   1.0000
     1.0000   1.0000   1.0000   1.0000   1.0000   1.0000   1.0000   1.0000
     1.0000   1.0000

          k = 0.0000 0.1000 0.1489 ( 11393 PWs)   bands (ev):

   -12.9020 -12.3545 -12.2542 -12.2541 -12.2140 -12.1420 -12.1151 -12.0611
   -12.0336 -12.0330 -10.1578  -8.5386  -8.4332  -7.2878   0.6603   4.4989
     4.5245   4.9223   5.7018   5.7143   6.4771   6.8371   6.8494   7.5980
     7.7183   8.2895

     occupation numbers 
     1.0000   1.0000   1.0000   1.0000   1.0000   1.0000   1.0000   1.0000
     1.0000   1.0000   1.0000   1.0000   1.0000   1.0000   1.0000   1.0000
     1.0000   1.0000   1.0000   1.0000   1.0000   1.0000   1.0000   1.0000
     1.0000   1.0000

          k = 0.0000 0.1000 0.2977 ( 11406 PWs)   bands (ev):

   -12.8035 -12.4315 -12.4064 -12.2515 -12.1774 -12.1481 -12.1077 -12.0621
   -12.0545 -12.0533  -9.9847  -8.2659  -8.1450  -7.4431   0.6836   4.3145
     4.3999   4.7854   5.1773   5.7930   5.9786   6.2143   6.3805   7.6427
     7.6674   8.1043

     occupation numbers 
     1.0000   1.0000   1.0000   1.0000   1.0000   1.0000   1.0000   1.0000
     1.0000   1.0000   1.0000   1.0000   1.0000   1.0000   1.0000   1.0000
     1.0000   1.0000   1.0000   1.0000   1.0000   1.0000   1.0000   1.0000
     1.0000   1.0000

          k = 0.0000 0.1000 0.4466 ( 11398 PWs)   bands (ev):

   -12.6963 -12.6035 -12.5462 -12.2228 -12.1239 -12.1088 -12.0976 -12.0776
   -12.0772 -12.0633  -9.6854  -8.0487  -7.8010  -7.6155   0.7792   3.2865
     4.2036   4.9130   5.2013   5.2183   5.6145   6.1192   6.2441   7.5313
     7.5513   7.7989

     occupation numbers 
     1.0000   1.0000   1.0000   1.0000   1.0000   1.0000   1.0000   1.0000
     1.0000   1.0000   1.0000   1.0000   1.0000   1.0000   1.0000   1.0000
     1.0000   1.0000   1.0000   1.0000   1.0000   1.0000   1.0000   1.0000
     1.0000   1.0000

          k = 0.0000 0.1000 0.5955 ( 11400 PWs)   bands (ev):

   -12.7417 -12.7312 -12.4817 -12.2756 -12.0995 -12.0976 -12.0850 -12.0680
   -12.0656 -12.0450  -9.2670  -8.3036  -7.5274  -7.5058   1.0347   2.2888
     4.2474   4.6277   4.7416   4.8872   5.9387   6.0709   6.5778   7.3512
     7.3789   7.4128

     occupation numbers 
     1.0000   1.0000   1.0000   1.0000   1.0000   1.0000   1.0000   1.0000
     1.0000   1.0000   1.0000   1.0000   1.0000   1.0000   1.0000   1.0000
     1.0000   1.0000   1.0000   1.0000   1.0000   1.0000   1.0000   1.0000
     1.0000   1.0000

          k = 0.0000 0.1000-0.7444 ( 11430 PWs)   bands (ev):

   -12.7793 -12.7793 -12.3652 -12.3652 -12.1050 -12.1050 -12.0754 -12.0754
   -12.0327 -12.0327  -8.7767  -8.7767  -7.4211  -7.4211   1.5288   1.5288
     4.3531   4.3531   4.6853   4.6853   6.1218   6.1218   6.9807   6.9807
     7.2670   7.2670

     occupation numbers 
     1.0000   1.0000   1.0000   1.0000   1.0000   1.0000   1.0000   1.0000
     1.0000   1.0000   1.0000   1.0000   1.0000   1.0000   1.0000   1.0000
     1.0000   1.0000   1.0000   1.0000   1.0000   1.0000   1.0000   1.0000
     1.0000   1.0000

          k = 0.0000 0.2000 0.0000 ( 11388 PWs)   bands (ev):

   -12.9026 -12.4244 -12.2284 -12.1866 -12.1865 -12.1676 -12.1130 -12.0646
   -12.0257 -12.0256 -10.1258  -8.8133  -8.4215  -7.2925   0.8534   3.9463
     4.8050   4.8777   5.8090   6.2691   6.7008   6.9766   7.1764   7.2031
     7.7198   8.2216

     occupation numbers 
     1.0000   1.0000   1.0000   1.0000   1.0000   1.0000   1.0000   1.0000
     1.0000   1.0000   1.0000   1.0000   1.0000   1.0000   1.0000   1.0000
     1.0000   1.0000   1.0000   1.0000   1.0000   1.0000   1.0000   1.0000
     1.0000   1.0000

          k = 0.0000 0.2000 0.1489 ( 11400 PWs)   bands (ev):

   -12.8684 -12.4037 -12.2562 -12.2559 -12.2070 -12.1485 -12.1105 -12.0646
   -12.0346 -12.0331 -10.0685  -8.7125  -8.3181  -7.3246   0.8586   3.9877
     4.4545   5.2031   5.5069   5.8345   6.5998   6.8854   6.9328   7.3278
     7.7190   8.1924

     occupation numbers 
     1.0000   1.0000   1.0000   1.0000   1.0000   1.0000   1.0000   1.0000
     1.0000   1.0000   1.0000   1.0000   1.0000   1.0000   1.0000   1.0000
     1.0000   1.0000   1.0000   1.0000   1.0000   1.0000   1.0000   1.0000
     1.0000   1.0000

          k = 0.0000 0.2000 0.2977 ( 11384 PWs)   bands (ev):

   -12.7846 -12.4797 -12.3913 -12.2524 -12.1746 -12.1460 -12.1040 -12.0655
   -12.0543 -12.0512  -9.8999  -8.4808  -8.0534  -7.4113   0.8802   3.9487
     4.1039   4.5465   5.5671   5.7453   5.9413   6.4312   6.6704   7.5510
     7.6506   8.0640

     occupation numbers 
     1.0000   1.0000   1.0000   1.0000   1.0000   1.0000   1.0000   1.0000
     1.0000   1.0000   1.0000   1.0000   1.0000   1.0000   1.0000   1.0000
     1.0000   1.0000   1.0000   1.0000   1.0000   1.0000   1.0000   1.0000
     1.0000   1.0000

          k = 0.0000 0.2000 0.4466 ( 11396 PWs)   bands (ev):

   -12.7343 -12.6439 -12.4754 -12.2080 -12.1248 -12.1127 -12.0954 -12.0760
   -12.0741 -12.0634  -9.6225  -8.3191  -7.7349  -7.4829   0.9530   3.1288
     3.8978   4.4019   5.1681   5.2063   5.9758   6.4713   6.4913   7.5015
     7.5659   7.8144

     occupation numbers 
     1.0000   1.0000   1.0000   1.0000   1.0000   1.0000   1.0000   1.0000
     1.0000   1.0000   1.0000   1.0000   1.0000   1.0000   1.0000   1.0000
     1.0000   1.0000   1.0000   1.0000   1.0000   1.0000   1.0000   1.0000
     1.0000   1.0000

          k = 0.0000 0.2000 0.5955 ( 11400 PWs)   bands (ev):

   -12.7899 -12.7699 -12.4076 -12.2423 -12.1038 -12.0986 -12.0822 -12.0679
   -12.0608 -12.0438  -9.2477  -8.4590  -7.4816  -7.4276   1.1562   2.2414
     3.8740   4.2700   4.6966   4.7377   6.3630   6.4475   6.7203   7.3301
     7.4501   7.4687

     occupation numbers 
     1.0000   1.0000   1.0000   1.0000   1.0000   1.0000   1.0000   1.0000
     1.0000   1.0000   1.0000   1.0000   1.0000   1.0000   1.0000   1.0000
     1.0000   1.0000   1.0000   1.0000   1.0000   1.0000   1.0000   1.0000
     1.0000   1.0000

          k = 0.0000 0.2000-0.7444 ( 11424 PWs)   bands (ev):

   -12.8198 -12.8198 -12.3124 -12.3124 -12.1067 -12.1067 -12.0739 -12.0739
   -12.0295 -12.0295  -8.8255  -8.8255  -7.3791  -7.3791   1.5737   1.5737
     4.0008   4.0008   4.5880   4.5880   6.5104   6.5104   7.0662   7.0662
     7.3098   7.3098

     occupation numbers 
     1.0000   1.0000   1.0000   1.0000   1.0000   1.0000   1.0000   1.0000
     1.0000   1.0000   1.0000   1.0000   1.0000   1.0000   1.0000   1.0000
     1.0000   1.0000   1.0000   1.0000   1.0000   1.0000   1.0000   1.0000
     1.0000   1.0000

          k = 0.0000 0.3000 0.0000 ( 11408 PWs)   bands (ev):

   -12.8440 -12.4916 -12.2258 -12.1903 -12.1847 -12.1845 -12.1057 -12.0705
   -12.0278 -12.0277  -9.9818  -9.0420  -8.2344  -7.4042   1.1740   3.3453
     5.0060   5.0401   6.0325   6.0363   6.4532   6.8252   7.1905   7.2214
     7.7426   8.0562

     occupation numbers 
     1.0000   1.0000   1.0000   1.0000   1.0000   1.0000   1.0000   1.0000
     1.0000   1.0000   1.0000   1.0000   1.0000   1.0000   1.0000   1.0000
     1.0000   1.0000   1.0000   1.0000   1.0000   1.0000   1.0000   1.0000
     1.0000   1.0000

          k = 0.0000 0.3000 0.1489 ( 11405 PWs)   bands (ev):

   -12.8142 -12.4780 -12.2581 -12.2576 -12.1975 -12.1568 -12.1036 -12.0702
   -12.0358 -12.0342  -9.9218  -8.9530  -8.1467  -7.4107   1.1817   3.3712
     4.4747   5.2533   5.5050   6.0322   6.5806   6.9571   6.9883   7.0843
     7.7236   8.0473

     occupation numbers 
     1.0000   1.0000   1.0000   1.0000   1.0000   1.0000   1.0000   1.0000
     1.0000   1.0000   1.0000   1.0000   1.0000   1.0000   1.0000   1.0000
     1.0000   1.0000   1.0000   1.0000   1.0000   1.0000   1.0000   1.0000
     1.0000   1.0000

          k = 0.0000 0.3000 0.2977 ( 11392 PWs)   bands (ev):

   -12.7537 -12.5398 -12.3679 -12.2625 -12.1702 -12.1470 -12.0983 -12.0704
   -12.0539 -12.0500  -9.7573  -8.7532  -7.9189  -7.4239   1.1989   3.3489
     3.9751   4.3284   5.6694   5.8999   6.0622   6.6721   6.8772   7.3984
     7.6328   7.9756

     occupation numbers 
     1.0000   1.0000   1.0000   1.0000   1.0000   1.0000   1.0000   1.0000
     1.0000   1.0000   1.0000   1.0000   1.0000   1.0000   1.0000   1.0000
     1.0000   1.0000   1.0000   1.0000   1.0000   1.0000   1.0000   1.0000
     1.0000   1.0000

          k = 0.0000 0.3000 0.4466 ( 11389 PWs)   bands (ev):

   -12.7590 -12.6902 -12.3994 -12.2051 -12.1257 -12.1177 -12.0918 -12.0758
   -12.0703 -12.0630  -9.5104  -8.6022  -7.6417  -7.4150   1.2326   2.8619
     3.6563   3.9329   5.1508   5.1541   6.4313   6.7252   6.7294   7.4761
     7.5463   7.8133

     occupation numbers 
     1.0000   1.0000   1.0000   1.0000   1.0000   1.0000   1.0000   1.0000
     1.0000   1.0000   1.0000   1.0000   1.0000   1.0000   1.0000   1.0000
     1.0000   1.0000   1.0000   1.0000   1.0000   1.0000   1.0000   1.0000
     1.0000   1.0000

          k = 0.0000 0.3000 0.5955 ( 11399 PWs)   bands (ev):

   -12.8306 -12.8116 -12.3292 -12.2139 -12.1068 -12.0989 -12.0790 -12.0683
   -12.0554 -12.0434  -9.2023  -8.6472  -7.4213  -7.3599   1.3484   2.1627
     3.5529   3.7968   4.6726   4.6996   6.6667   6.8054   6.8583   7.3544
     7.5100   7.5807

     occupation numbers 
     1.0000   1.0000   1.0000   1.0000   1.0000   1.0000   1.0000   1.0000
     1.0000   1.0000   1.0000   1.0000   1.0000   1.0000   1.0000   1.0000
     1.0000   1.0000   1.0000   1.0000   1.0000   1.0000   1.0000   1.0000
     1.0000   1.0000

          k = 0.0000 0.3000-0.7444 ( 11388 PWs)   bands (ev):

   -12.8604 -12.8604 -12.2578 -12.2578 -12.1073 -12.1073 -12.0723 -12.0723
   -12.0255 -12.0255  -8.8831  -8.8831  -7.3303  -7.3303   1.6419   1.6419
     3.6198   3.6198   4.5411   4.5411   6.7462   6.7462   7.2196   7.2196
     7.4268   7.4268

     occupation numbers 
     1.0000   1.0000   1.0000   1.0000   1.0000   1.0000   1.0000   1.0000
     1.0000   1.0000   1.0000   1.0000   1.0000   1.0000   1.0000   1.0000
     1.0000   1.0000   1.0000   1.0000   1.0000   1.0000   1.0000   1.0000
     1.0000   1.0000

          k = 0.0000 0.4000 0.0000 ( 11430 PWs)   bands (ev):

   -12.7665 -12.5799 -12.2219 -12.2060 -12.1831 -12.1830 -12.0968 -12.0783
   -12.0296 -12.0295  -9.7882  -9.2994  -8.0119  -7.5717   1.6067   2.7231
     5.2534   5.2775   5.7721   6.0105   6.3022   6.7631   7.2061   7.2262
     7.7741   7.9120

     occupation numbers 
     1.0000   1.0000   1.0000   1.0000   1.0000   1.0000   1.0000   1.0000
     1.0000   1.0000   1.0000   1.0000   1.0000   1.0000   1.0000   1.0000
     1.0000   1.0000   1.0000   1.0000   1.0000   1.0000   1.0000   1.0000
     1.0000   1.0000

          k = 0.0000 0.4000 0.1489 ( 11416 PWs)   bands (ev):

   -12.7424 -12.5663 -12.2593 -12.2589 -12.1868 -12.1660 -12.0952 -12.0776
   -12.0366 -12.0356  -9.7238  -9.2205  -7.9438  -7.5518   1.6168   2.7405
     4.5804   4.9920   5.8093   6.2830   6.3958   6.7671   7.0386   7.1193
     7.7406   7.8968

     occupation numbers 
     1.0000   1.0000   1.0000   1.0000   1.0000   1.0000   1.0000   1.0000
     1.0000   1.0000   1.0000   1.0000   1.0000   1.0000   1.0000   1.0000
     1.0000   1.0000   1.0000   1.0000   1.0000   1.0000   1.0000   1.0000
     1.0000   1.0000

          k = 0.0000 0.4000 0.2977 ( 11390 PWs)   bands (ev):

   -12.7118 -12.6019 -12.3392 -12.2822 -12.1645 -12.1515 -12.0913 -12.0767
   -12.0529 -12.0504  -9.5599  -9.0408  -7.7642  -7.4946   1.6263   2.7290
     3.9429   4.1387   5.6980   5.8339   6.4811   6.8899   6.9779   7.1858
     7.6379   7.8411

     occupation numbers 
     1.0000   1.0000   1.0000   1.0000   1.0000   1.0000   1.0000   1.0000
     1.0000   1.0000   1.0000   1.0000   1.0000   1.0000   1.0000   1.0000
     1.0000   1.0000   1.0000   1.0000   1.0000   1.0000   1.0000   1.0000
     1.0000   1.0000

          k = 0.0000 0.4000 0.4466 ( 11380 PWs)   bands (ev):

   -12.7667 -12.7301 -12.3272 -12.2242 -12.1259 -12.1221 -12.0871 -12.0781
   -12.0666 -12.0627  -9.3458  -8.8791  -7.5419  -7.4099   1.6019   2.4791
     3.5189   3.6302   5.1192   5.1348   6.8040   6.8562   6.9644   7.4421
     7.5063   7.7545

     occupation numbers 
     1.0000   1.0000   1.0000   1.0000   1.0000   1.0000   1.0000   1.0000
     1.0000   1.0000   1.0000   1.0000   1.0000   1.0000   1.0000   1.0000
     1.0000   1.0000   1.0000   1.0000   1.0000   1.0000   1.0000   1.0000
     1.0000   1.0000

          k = 0.0000 0.4000 0.5955 ( 11391 PWs)   bands (ev):

   -12.8545 -12.8435 -12.2632 -12.2048 -12.1068 -12.0998 -12.0755 -12.0696
   -12.0507 -12.0445  -9.1197  -8.8332  -7.3646  -7.3251   1.5896   2.0358
     3.3428   3.4465   4.6601   4.6692   6.7726   6.8784   7.1760   7.4807
     7.4991   7.6683

     occupation numbers 
     1.0000   1.0000   1.0000   1.0000   1.0000   1.0000   1.0000   1.0000
     1.0000   1.0000   1.0000   1.0000   1.0000   1.0000   1.0000   1.0000
     1.0000   1.0000   1.0000   1.0000   1.0000   1.0000   1.0000   1.0000
     1.0000   1.0000

          k = 0.0000 0.4000-0.7444 ( 11396 PWs)   bands (ev):

   -12.8885 -12.8885 -12.2206 -12.2206 -12.1056 -12.1056 -12.0709 -12.0709
   -12.0219 -12.0219  -8.9279  -8.9279  -7.2929  -7.2929   1.7121   1.7121
     3.3391   3.3391   4.5144   4.5144   6.7939   6.7939   7.3782   7.3782
     7.5827   7.5827

     occupation numbers 
     1.0000   1.0000   1.0000   1.0000   1.0000   1.0000   1.0000   1.0000
     1.0000   1.0000   1.0000   1.0000   1.0000   1.0000   1.0000   1.0000
     1.0000   1.0000   1.0000   1.0000   1.0000   1.0000   1.0000   1.0000
     1.0000   1.0000

          k = 0.0000-0.5000 0.0000 ( 11428 PWs)   bands (ev):

   -12.6756 -12.6756 -12.2157 -12.2157 -12.1824 -12.1824 -12.0873 -12.0873
   -12.0302 -12.0302  -9.5555  -9.5555  -7.7819  -7.7819   2.1318   2.1319
     5.5036   5.5036   5.6143   5.6143   6.5688   6.5688   7.2196   7.2196
     7.8230   7.8230

     occupation numbers 
     1.0000   1.0000   1.0000   1.0000   1.0000   1.0000   1.0000   1.0000
     1.0000   1.0000   1.0000   1.0000   1.0000   1.0000   1.0000   1.0000
     1.0000   1.0000   1.0000   1.0000   1.0000   1.0000   1.0000   1.0000
     1.0000   1.0000

          k = 0.0000-0.5000 0.1489 ( 11418 PWs)   bands (ev):

   -12.6575 -12.6575 -12.2595 -12.2595 -12.1761 -12.1761 -12.0862 -12.0862
   -12.0366 -12.0366  -9.4848  -9.4848  -7.7367  -7.7367   2.1447   2.1447
     4.7591   4.7591   6.1128   6.1128   6.5383   6.5383   7.1051   7.1051
     7.7905   7.7905

     occupation numbers 
     1.0000   1.0000   1.0000   1.0000   1.0000   1.0000   1.0000   1.0000
     1.0000   1.0000   1.0000   1.0000   1.0000   1.0000   1.0000   1.0000
     1.0000   1.0000   1.0000   1.0000   1.0000   1.0000   1.0000   1.0000
     1.0000   1.0000

          k = 0.0000-0.5000 0.2977 ( 11382 PWs)   bands (ev):

   -12.6604 -12.6604 -12.3091 -12.3091 -12.1579 -12.1579 -12.0839 -12.0839
   -12.0516 -12.0516  -9.3163  -9.3163  -7.6146  -7.6146   2.1441   2.1441
     4.0026   4.0026   5.7585   5.7585   6.8406   6.8406   7.0273   7.0273
     7.7068   7.7068

     occupation numbers 
     1.0000   1.0000   1.0000   1.0000   1.0000   1.0000   1.0000   1.0000
     1.0000   1.0000   1.0000   1.0000   1.0000   1.0000   1.0000   1.0000
     1.0000   1.0000   1.0000   1.0000   1.0000   1.0000   1.0000   1.0000
     1.0000   1.0000

          k = 0.0000-0.5000 0.4466 ( 11372 PWs)   bands (ev):

   -12.7567 -12.7567 -12.2664 -12.2664 -12.1248 -12.1248 -12.0823 -12.0823
   -12.0639 -12.0639  -9.1320  -9.1320  -7.4577  -7.4577   2.0336   2.0336
     3.5031   3.5031   5.1178   5.1178   6.9081   6.9081   7.2347   7.2347
     7.6269   7.6269

     occupation numbers 
     1.0000   1.0000   1.0000   1.0000   1.0000   1.0000   1.0000   1.0000
     1.0000   1.0000   1.0000   1.0000   1.0000   1.0000   1.0000   1.0000
     1.0000   1.0000   1.0000   1.0000   1.0000   1.0000   1.0000   1.0000
     1.0000   1.0000

          k = 0.0000-0.5000 0.5955 ( 11396 PWs)   bands (ev):

   -12.8587 -12.8587 -12.2204 -12.2204 -12.1034 -12.1034 -12.0722 -12.0722
   -12.0471 -12.0471  -8.9952  -8.9952  -7.3284  -7.3284   1.8375   1.8375
     3.2927   3.2927   4.6571   4.6571   6.8381   6.8381   7.3978   7.3978
     7.6274   7.6274

     occupation numbers 
     1.0000   1.0000   1.0000   1.0000   1.0000   1.0000   1.0000   1.0000
     1.0000   1.0000   1.0000   1.0000   1.0000   1.0000   1.0000   1.0000
     1.0000   1.0000   1.0000   1.0000   1.0000   1.0000   1.0000   1.0000
     1.0000   1.0000

          k = 0.0000-0.5000-0.7444 ( 11380 PWs)   bands (ev):

   -12.8984 -12.8984 -12.2081 -12.2081 -12.1042 -12.1042 -12.0703 -12.0703
   -12.0203 -12.0203  -8.9447  -8.9447  -7.2790  -7.2790   1.7443   1.7443
     3.2336   3.2336   4.5056   4.5056   6.7955   6.7955   7.4326   7.4326
     7.6582   7.6582

     occupation numbers 
     1.0000   1.0000   1.0000   1.0000   1.0000   1.0000   1.0000   1.0000
     1.0000   1.0000   1.0000   1.0000   1.0000   1.0000   1.0000   1.0000
     1.0000   1.0000   1.0000   1.0000   1.0000   1.0000   1.0000   1.0000
     1.0000   1.0000

          k = 0.1000 0.1000 0.0000 ( 11395 PWs)   bands (ev):

   -12.9275 -12.3986 -12.2293 -12.1887 -12.1864 -12.1529 -12.1162 -12.0621
   -12.0257 -12.0232 -10.1838  -8.6126  -8.6002  -7.2541   0.7240   4.3378
     4.6409   4.8097   5.7100   6.3823   6.6193   7.1571   7.1970   7.2637
     7.6903   8.3061

     occupation numbers 
     1.0000   1.0000   1.0000   1.0000   1.0000   1.0000   1.0000   1.0000
     1.0000   1.0000   1.0000   1.0000   1.0000   1.0000   1.0000   1.0000
     1.0000   1.0000   1.0000   1.0000   1.0000   1.0000   1.0000   1.0000
     1.0000   1.0000

          k = 0.1000 0.1000 0.1489 ( 11388 PWs)   bands (ev):

   -12.8914 -12.3710 -12.2557 -12.2535 -12.2126 -12.1442 -12.1135 -12.0622
   -12.0339 -12.0331 -10.1272  -8.5122  -8.4827  -7.2989   0.7274   4.2443
     4.7261   4.8561   5.6378   5.7486   6.5419   6.8220   6.9037   7.5022
     7.7098   8.2611

     occupation numbers 
     1.0000   1.0000   1.0000   1.0000   1.0000   1.0000   1.0000   1.0000
     1.0000   1.0000   1.0000   1.0000   1.0000   1.0000   1.0000   1.0000
     1.0000   1.0000   1.0000   1.0000   1.0000   1.0000   1.0000   1.0000
     1.0000   1.0000

          k = 0.1000 0.1000 0.2977 ( 11389 PWs)   bands (ev):

   -12.7972 -12.4392 -12.4122 -12.2509 -12.1769 -12.1465 -12.1064 -12.0633
   -12.0537 -12.0534  -9.9559  -8.2746  -8.1857  -7.4255   0.7487   4.0069
     4.4796   4.9581   5.0251   5.7363   5.9948   6.2676   6.5415   7.6056
     7.6698   8.0960

     occupation numbers 
     1.0000   1.0000   1.0000   1.0000   1.0000   1.0000   1.0000   1.0000
     1.0000   1.0000   1.0000   1.0000   1.0000   1.0000   1.0000   1.0000
     1.0000   1.0000   1.0000   1.0000   1.0000   1.0000   1.0000   1.0000
     1.0000   1.0000

          k = 0.1000 0.1000 0.4466 ( 11387 PWs)   bands (ev):

   -12.7175 -12.5873 -12.5471 -12.2153 -12.1244 -12.1096 -12.0970 -12.0785
   -12.0748 -12.0635  -9.6642  -8.1192  -7.8322  -7.5379   0.8336   3.2191
     4.0210   5.0480   5.0530   5.3139   5.4369   6.3216   6.3708   7.5314
     7.5508   7.8062

     occupation numbers 
     1.0000   1.0000   1.0000   1.0000   1.0000   1.0000   1.0000   1.0000
     1.0000   1.0000   1.0000   1.0000   1.0000   1.0000   1.0000   1.0000
     1.0000   1.0000   1.0000   1.0000   1.0000   1.0000   1.0000   1.0000
     1.0000   1.0000

          k = 0.1000 0.1000 0.5955 ( 11392 PWs)   bands (ev):

   -12.7805 -12.7154 -12.4696 -12.2586 -12.1002 -12.0992 -12.0838 -12.0679
   -12.0641 -12.0445  -9.2609  -8.3479  -7.5512  -7.4468   1.0651   2.2750
     4.0315   4.5773   4.5798   5.1454   5.7302   6.4212   6.6324   7.3580
     7.3803   7.4354

     occupation numbers 
     1.0000   1.0000   1.0000   1.0000   1.0000   1.0000   1.0000   1.0000
     1.0000   1.0000   1.0000   1.0000   1.0000   1.0000   1.0000   1.0000
     1.0000   1.0000   1.0000   1.0000   1.0000   1.0000   1.0000   1.0000
     1.0000   1.0000

          k = 0.1000 0.1000-0.7444 ( 11432 PWs)   bands (ev):

   -12.8192 -12.7616 -12.3902 -12.3103 -12.1059 -12.1056 -12.0756 -12.0742
   -12.0321 -12.0310  -8.8351  -8.7447  -7.4442  -7.3746   1.4359   1.6445
     4.1290   4.3055   4.3860   5.0656   5.8952   6.5258   7.0132   7.0169
     7.2383   7.3002

     occupation numbers 
     1.0000   1.0000   1.0000   1.0000   1.0000   1.0000   1.0000   1.0000
     1.0000   1.0000   1.0000   1.0000   1.0000   1.0000   1.0000   1.0000
     1.0000   1.0000   1.0000   1.0000   1.0000   1.0000   1.0000   1.0000
     1.0000   1.0000

          k = 0.1000 0.2000 0.0000 ( 11390 PWs)   bands (ev):

   -12.8937 -12.4380 -12.2277 -12.1883 -12.1844 -12.1727 -12.1116 -12.0655
   -12.0279 -12.0237 -10.0938  -8.7693  -8.4801  -7.3181   0.9220   3.9321
     4.7332   4.9080   5.8459   6.2322   6.7136   6.8898   7.1579   7.2181
     7.6938   8.1883

     occupation numbers 
     1.0000   1.0000   1.0000   1.0000   1.0000   1.0000   1.0000   1.0000
     1.0000   1.0000   1.0000   1.0000   1.0000   1.0000   1.0000   1.0000
     1.0000   1.0000   1.0000   1.0000   1.0000   1.0000   1.0000   1.0000
     1.0000   1.0000

          k = 0.1000 0.2000 0.1489 ( 11408 PWs)   bands (ev):

   -12.8599 -12.4184 -12.2572 -12.2547 -12.2077 -12.1500 -12.1092 -12.0655
   -12.0351 -12.0331 -10.0361  -8.6725  -8.3784  -7.3437   0.9261   3.8724
     4.5868   5.1173   5.4662   5.8531   6.6131   6.8527   6.9889   7.2698
     7.7053   8.1727

     occupation numbers 
     1.0000   1.0000   1.0000   1.0000   1.0000   1.0000   1.0000   1.0000
     1.0000   1.0000   1.0000   1.0000   1.0000   1.0000   1.0000   1.0000
     1.0000   1.0000   1.0000   1.0000   1.0000   1.0000   1.0000   1.0000
     1.0000   1.0000

          k = 0.1000 0.2000 0.2977 ( 11396 PWs)   bands (ev):

   -12.7786 -12.4806 -12.4016 -12.2541 -12.1749 -12.1447 -12.1029 -12.0663
   -12.0539 -12.0518  -9.8687  -8.4568  -8.1150  -7.4091   0.9406   3.6216
     4.3513   4.6484   5.4038   5.6694   5.9880   6.4516   6.7879   7.5136
     7.6575   8.0605

     occupation numbers 
     1.0000   1.0000   1.0000   1.0000   1.0000   1.0000   1.0000   1.0000
     1.0000   1.0000   1.0000   1.0000   1.0000   1.0000   1.0000   1.0000
     1.0000   1.0000   1.0000   1.0000   1.0000   1.0000   1.0000   1.0000
     1.0000   1.0000

          k = 0.1000 0.2000 0.4466 ( 11402 PWs)   bands (ev):

   -12.7470 -12.6197 -12.4929 -12.2041 -12.1255 -12.1122 -12.0951 -12.0776
   -12.0721 -12.0639  -9.5979  -8.3238  -7.7927  -7.4460   0.9933   3.0159
     3.7770   4.6441   5.0482   5.2773   5.7780   6.5105   6.6838   7.5080
     7.5645   7.8205

     occupation numbers 
     1.0000   1.0000   1.0000   1.0000   1.0000   1.0000   1.0000   1.0000
     1.0000   1.0000   1.0000   1.0000   1.0000   1.0000   1.0000   1.0000
     1.0000   1.0000   1.0000   1.0000   1.0000   1.0000   1.0000   1.0000
     1.0000   1.0000

          k = 0.1000 0.2000 0.5955 ( 11399 PWs)   bands (ev):

   -12.8220 -12.7365 -12.4241 -12.2260 -12.1039 -12.0999 -12.0813 -12.0679
   -12.0600 -12.0438  -9.2376  -8.4674  -7.5321  -7.3773   1.1547   2.2243
     3.6771   4.3542   4.5250   5.0601   6.0290   6.7438   6.7802   7.3446
     7.4470   7.4888

     occupation numbers 
     1.0000   1.0000   1.0000   1.0000   1.0000   1.0000   1.0000   1.0000
     1.0000   1.0000   1.0000   1.0000   1.0000   1.0000   1.0000   1.0000
     1.0000   1.0000   1.0000   1.0000   1.0000   1.0000   1.0000   1.0000
     1.0000   1.0000

          k = 0.1000 0.2000-0.7444 ( 11410 PWs)   bands (ev):

   -12.8596 -12.7807 -12.3685 -12.2537 -12.1075 -12.1070 -12.0747 -12.0725
   -12.0292 -12.0282  -8.8959  -8.7541  -7.4321  -7.3246   1.3886   1.7484
     3.6968   4.1443   4.3396   5.0228   6.1505   6.8745   7.0906   7.1125
     7.2523   7.3588

     occupation numbers 
     1.0000   1.0000   1.0000   1.0000   1.0000   1.0000   1.0000   1.0000
     1.0000   1.0000   1.0000   1.0000   1.0000   1.0000   1.0000   1.0000
     1.0000   1.0000   1.0000   1.0000   1.0000   1.0000   1.0000   1.0000
     1.0000   1.0000

          k = 0.1000 0.3000 0.0000 ( 11400 PWs)   bands (ev):

   -12.8390 -12.5043 -12.2249 -12.1921 -12.1869 -12.1829 -12.1046 -12.0711
   -12.0296 -12.0254  -9.9474  -8.9984  -8.2917  -7.4384   1.2440   3.3715
     4.9366   5.0651   6.0171   6.0565   6.3784   6.8327   7.1703   7.2273
     7.7137   8.0304

     occupation numbers 
     1.0000   1.0000   1.0000   1.0000   1.0000   1.0000   1.0000   1.0000
     1.0000   1.0000   1.0000   1.0000   1.0000   1.0000   1.0000   1.0000
     1.0000   1.0000   1.0000   1.0000   1.0000   1.0000   1.0000   1.0000
     1.0000   1.0000

          k = 0.1000 0.3000 0.1489 ( 11415 PWs)   bands (ev):

   -12.8089 -12.4895 -12.2583 -12.2567 -12.1994 -12.1581 -12.1026 -12.0708
   -12.0363 -12.0337  -9.8869  -8.9118  -8.2048  -7.4400   1.2479   3.3485
     4.5391   5.2325   5.4417   6.0268   6.5579   6.9276   6.9533   7.1281
     7.7081   8.0371

     occupation numbers 
     1.0000   1.0000   1.0000   1.0000   1.0000   1.0000   1.0000   1.0000
     1.0000   1.0000   1.0000   1.0000   1.0000   1.0000   1.0000   1.0000
     1.0000   1.0000   1.0000   1.0000   1.0000   1.0000   1.0000   1.0000
     1.0000   1.0000

          k = 0.1000 0.3000 0.2977 ( 11405 PWs)   bands (ev):

   -12.7481 -12.5381 -12.3786 -12.2666 -12.1710 -12.1465 -12.0974 -12.0709
   -12.0538 -12.0508  -9.7231  -8.7203  -7.9778  -7.4379   1.2492   3.1757
     4.1677   4.3760   5.6049   5.7918   6.0438   6.6793   6.9751   7.3583
     7.6400   7.9793

     occupation numbers 
     1.0000   1.0000   1.0000   1.0000   1.0000   1.0000   1.0000   1.0000
     1.0000   1.0000   1.0000   1.0000   1.0000   1.0000   1.0000   1.0000
     1.0000   1.0000   1.0000   1.0000   1.0000   1.0000   1.0000   1.0000
     1.0000   1.0000

          k = 0.1000 0.3000 0.4466 ( 11385 PWs)   bands (ev):

   -12.7642 -12.6696 -12.4198 -12.2074 -12.1263 -12.1160 -12.0915 -12.0766
   -12.0700 -12.0637  -9.4814  -8.5824  -7.6987  -7.4056   1.2470   2.7061
     3.6303   4.2058   5.0142   5.2071   6.2723   6.7243   6.9079   7.4712
     7.5524   7.8176

     occupation numbers 
     1.0000   1.0000   1.0000   1.0000   1.0000   1.0000   1.0000   1.0000
     1.0000   1.0000   1.0000   1.0000   1.0000   1.0000   1.0000   1.0000
     1.0000   1.0000   1.0000   1.0000   1.0000   1.0000   1.0000   1.0000
     1.0000   1.0000

          k = 0.1000 0.3000 0.5955 ( 11405 PWs)   bands (ev):

   -12.8500 -12.7796 -12.3564 -12.2045 -12.1067 -12.0999 -12.0784 -12.0683
   -12.0551 -12.0438  -9.1856  -8.6306  -7.4751  -7.3318   1.2985   2.1127
     3.4332   4.0337   4.5086   4.8824   6.4720   6.9037   6.9759   7.3549
     7.5241   7.5812

     occupation numbers 
     1.0000   1.0000   1.0000   1.0000   1.0000   1.0000   1.0000   1.0000
     1.0000   1.0000   1.0000   1.0000   1.0000   1.0000   1.0000   1.0000
     1.0000   1.0000   1.0000   1.0000   1.0000   1.0000   1.0000   1.0000
     1.0000   1.0000

          k = 0.1000 0.3000-0.7444 ( 11386 PWs)   bands (ev):

   -12.8879 -12.8213 -12.3167 -12.2157 -12.1083 -12.1070 -12.0732 -12.0711
   -12.0253 -12.0249  -8.9370  -8.8003  -7.3906  -7.2888   1.4010   1.7896
     3.4032   3.8975   4.3327   4.8210   6.5316   6.9654   7.1902   7.2974
     7.3521   7.4896

     occupation numbers 
     1.0000   1.0000   1.0000   1.0000   1.0000   1.0000   1.0000   1.0000
     1.0000   1.0000   1.0000   1.0000   1.0000   1.0000   1.0000   1.0000
     1.0000   1.0000   1.0000   1.0000   1.0000   1.0000   1.0000   1.0000
     1.0000   1.0000

          k = 0.1000 0.4000 0.0000 ( 11421 PWs)   bands (ev):

[...]
              0.145757440294624E+02
              0.228325442716877E+01
             -0.222094116717501E+01
              0.647225466608717E+00
             -0.177613112157097E+01
              0.117607454007561E+02
             -0.360769668009301E+00
              0.241488377469517E+01
              0.832617894526238E+01
              0.201980925200254E+01
             -0.647331170548068E+01
             -0.985308706380738E+01
              0.239249163435787E+00
             -0.112347923471230E+02
              0.376768021631468E+01
             -0.203976764290899E+01
             -0.484455654155616E+01
              0.451810188148120E+01
              0.166222073357073E+01
              0.424081644450763E+01
              0.233160738416611E+00
              0.655045474108900E+01
             -0.108946441049361E+02
             -0.918196557995437E+00
             -0.958503669336025E+01
              0.193616110872415E+01
              0.514139470962010E+01
             -0.876700017555763E+00
             -0.356141791298211E+01
              0.780305635426991E+01
             -0.355584055160396E+01
              0.252429500031188E+01
             -0.219757655938193E+01
              0.583999140611989E+01
              0.648883361173991E+01
             -0.285451708955566E+01
              0.561562128048624E+01
              0.215792102223500E+01
             -0.582619807254001E+01
             -0.357056070195949E+01
              0.927473740764188E+01
              0.450983604183538E+01
             -0.385969866449827E+00
             -0.117932731351316E+01
              0.139663835115698E+02
              0.825261862673909E+01
              0.297722899800942E+01
             -0.895664394256008E+01
              0.139825748017686E+02
             -0.643193436224508E+01
             -0.795189743217142E+01
             -0.121730250910893E+02
              0.569873559828092E+01
             -0.110206117080355E+02
              0.484952349120304E+01
              0.806576395487220E+01
              0.568357150827717E+01
              0.137959061370467E+01
              0.358728164230911E+01
             -0.892225624889426E+01
             -0.315404245840733E+01
             -0.275382053283747E+01
              0.443562217384433E+01
              0.930271721986895E+01
              0.941958825545886E+01
              0.733250767259764E+01
             -0.179435499571733E+01
              0.242477509228273E+01
              0.183072010842089E+00
             -0.290927900270314E+01
              0.400757012761489E+01
              0.411449521817025E+01
             -0.551373766592059E+01
             -0.601003240580138E+01
             -0.262867717365195E+01
              0.639903475913847E+01
              0.316978528891081E+01
             -0.430659067762062E+01
             -0.716178888134694E+01
             -0.100329580542569E+02
              0.169783316091554E+00
              0.266276932093166E+01
             -0.377742687850419E+01
              0.141695367963227E+02
              0.410939032338305E+00
             -0.163338078325448E+02
              0.384886236937412E+01
              0.698437717930921E+01
             -0.283626171474892E+01
              0.300837804101207E+00
             -0.404483070852847E+01
              0.645294930520297E+01
              0.306035695640547E+01
             -0.834074226686479E+01
              0.990363021811054E+01
              0.476322936028627E+00
             -0.421935938013614E+01
             -0.491603197715735E+01
              0.198355711187217E+02
              0.898505230082630E+01
             -0.224607041574204E+01
              0.485594742909268E+01
             -0.919479345738270E+01
             -0.189272916912880E+01
             -0.868101432039653E+01
              0.343027344468550E+01
              0.602432617188522E+01
              0.698522332727779E+01
             -0.290895709793728E+01
              0.749762456370846E+00
              0.830673778241295E+01
              0.291127914785149E+01
              0.503613748723398E+01
              0.215469484481555E+01
             -0.124860606314569E+01
             -0.396536764693423E-03
             -0.149872661235520E+01
              0.184264151124124E+01
              0.564073344814872E+00
             -0.753558833924254E+01
              0.115890813686378E+02
              0.454010756123540E+01
             -0.822604226004765E+01
             -0.607373482760097E+01
             -0.870930412818383E+01
             -0.392652064112049E+01
             -0.280025547309674E+01
             -0.683525281998137E+01
             -0.663168007445299E+01
              0.835755725330665E+01
              0.651965895462014E+01
             -0.964332416604115E+00
              0.955107258529129E+01
              0.161761216613544E+01
             -0.155174525020140E+02
              0.848347059279369E+01
              0.164544943426704E+01
              0.663673002509530E+01
              0.121604605775047E+01
              0.103353511543953E+01
              0.133545259885306E+01
              0.358456327660630E+01
             -0.639576671425455E+01
             -0.310617170189268E+01
             -0.599467860702052E+01
             -0.490481096871127E+01
              0.219482118103775E+01
             -0.564573437771521E+01
              0.263746021202048E+01
              0.356298973536089E+01
             -0.354379782824384E+01
             -0.212112345907412E+01
              0.223884758530914E-01
              0.976331139131308E+01
              0.135929989702123E+01
              0.948172392131768E+01
              0.333143585604562E+01
             -0.122580337302564E+02
             -0.415459052812613E+01
              0.409800066055274E+01
              0.945893504294680E+01
              0.176018896649055E+01
              0.380846892495505E+01
              0.888637914248854E+01
             -0.519640993419856E+01
             -0.813550202259387E+01
              0.109335881319633E+02
              0.370949796588505E+00
             -0.116573751203452E+02
              0.409074169003736E+01
              0.748206070696935E+01
             -0.175378427365509E+01
             -0.736685465759026E+01
              0.129324491849405E+01
              0.444457246959800E+00
             -0.381495530719165E+01
              0.147605155510716E+01
             -0.126134076627778E+01
              0.171312805751531E+02
              0.485169120485649E+01
             -0.756730662862370E+01
              0.218182040112114E+01
              0.107089047228116E+02
             -0.702651448135693E+01
             -0.199571203432475E+01
             -0.645221460106310E+01
              0.518198786924047E+01
              0.191615166958783E+01
              0.342937086242498E+01
              0.466181281500553E+00
              0.121034726718556E+02
             -0.700044909017930E+01
             -0.535710848938066E+01
             -0.546632753968990E+01
              0.484830251778459E+01
              0.118829376017770E+02
             -0.172827202441128E+01
              0.485334685782828E+01
             -0.680780216311845E+01
              0.983538649031956E+00
             -0.206710716895219E+01
             -0.262722457968465E-01
             -0.279283692257882E+01
             -0.237888379635423E+01
             -0.207687669475126E+01
              0.197867264327660E+01
              0.338536467899306E+01
             -0.781066950323375E+01
              0.571619714302421E+01
             -0.916683728444703E+01
              0.691337417992937E+01
             -0.769142045865181E+01
              0.120918238837072E+02
              0.660058009775659E+01
              0.735624410518655E+01
              0.175884005303789E+01
              0.193628988437396E+01
             -0.164510907470763E+02
              0.266012272246558E+01
              0.606211361965123E+00
              0.135834460910010E+01
             -0.250590415617230E+01
              0.126388051110700E+02
             -0.340750261110894E+01
             -0.508661431247870E+01
             -0.124272740990428E+02
             -0.427935415611196E+01
             -0.581065866970797E+01
             -0.514749240552258E+01
             -0.117638865366163E+01
             -0.263641390265425E+01
             -0.362965619106035E+01
             -0.538912997811093E+01
              0.409304005854635E+01
              0.131321867104580E+02
              0.111209736563009E+02
             -0.218035764764250E+01
             -0.135435465713345E+02
             -0.573658127577786E+01
              0.274792516013928E+01
              0.276406882063973E+01
              0.425509532448580E+01
              0.321671354855270E+01
              0.800040404883532E+00
              0.128294873178531E+02
             -0.317356012347557E+01
              0.645030651408017E+01
              0.318086385129240E+01
             -0.431911290543322E+01
             -0.235491253347242E+01
              0.587050947992544E+01
             -0.323063857415244E+01
             -0.215182893833457E+01
             -0.155913405239069E+01
              0.749867461172282E+01
             -0.995328012791151E+01
             -0.105217664705430E+01
             -0.786648295097686E+01
             -0.168463353726952E+02
              0.619831570242511E-01
             -0.232647630556731E+01
              0.629723349717918E+01
              0.707934580629900E+01
              0.965272660081143E+01
             -0.624814711399233E+01
              0.100826477070014E+02
              0.255798870857355E+01
             -0.335761393663993E+01
              0.156364071375203E+01
             -0.314922847822775E+01
             -0.201260672153882E+01
              0.548004028974049E+01
             -0.491563765685978E+01
              0.126311942573127E+02
             -0.330715073954561E+01
             -0.689464898493631E+01
              0.131090321843491E+02
             -0.717044643035750E+01
             -0.839893453809893E+00
              0.957261121987834E+00
              0.376466267308923E+01
             -0.571653695325587E+01
             -0.430704701445591E+01
              0.667057620515309E+01
             -0.104996615819791E+02
              0.819068687927870E+01
              0.120449297719843E+01
              0.613351435112621E+01
              0.864684845190179E+01
              0.217616253300486E+01
             -0.117642122011629E+02
             -0.512643125283908E+01
             -0.860430093868153E+01
             -0.526254260092128E+01
             -0.158014257087997E+01
              0.188036893700307E+01
             -0.386557480806841E+01
              0.140101359181116E+00
             -0.123935081090505E+02
              0.535951889811642E+00
             -0.798325395292020E+01
              0.767927870384756E+01
             -0.425384338695735E+01
             -0.953956367589017E+00
              0.572895783953264E+01
              0.949684308321616E+00
              0.550683006917411E+01
             -0.100997371286472E+02
              0.184699728409115E+01
              0.826203770344488E+00
              0.421751158972886E+01
              0.717814334459120E+01
             -0.123690685420004E+01
             -0.805305540148096E+01
             -0.467757758854006E+01
             -0.321299534501634E+01
             -0.125225287304349E+01
              0.750284525638448E+01
              0.483649244779788E+01
             -0.484245607002892E+01
             -0.458243990037985E+01
              0.359592283469026E+01
              0.362319983375328E+01
             -0.991887448451600E+01
              0.255328800894902E+01
              0.714632057071700E+01
             -0.324943344205115E+00
              0.885854281388993E+01
              0.423146392261264E+01
              0.691620404024202E+01
              0.104796030209136E+02
              0.149565601101598E+01
             -0.146033623899314E+02
              0.178473368429743E+01
              0.159257780861675E+02
              0.115429553268193E+02
             -0.783447018083528E+01
              0.731500618013600E+00
              0.101567446397762E+02
              0.887803668493602E+01
              0.400788174943223E+01
             -0.240737623245324E+01
              0.402978009836695E+01
              0.851287247846115E+01
             -0.379702738206504E+01
             -0.260847893810108E+01
              0.550035678651690E+01
             -0.400149135485968E+00
              0.506336739610084E+01
             -0.132380630016641E+01
              0.104189581454350E+02
             -0.393372579194953E+01
              0.230309631866291E+01
             -0.468712315732553E+01
              0.507531697342604E+01
             -0.621767185931297E+00
              0.776412576456076E+01
              0.501299559406057E+00
              0.325460521328655E+01
             -0.507756483233334E+01
             -0.338788577709267E+01
             -0.168420914346090E+01
             -0.143457346298137E+01
              0.839755002102109E+01
              0.383956007915854E+01
              0.104373974718602E+02
              0.899858886730495E+01
              0.226357255398572E+01
              0.243348419080275E+00
              0.101187174206980E+02
              0.561670616815318E+01
              0.189428759721324E+00
              0.953737428629414E+01
             -0.814818969359266E+01
              0.279758748017591E+01
             -0.524230023965470E+01
             -0.177952688796625E+01
              0.132776713897824E+02
             -0.193020250833219E+01
             -0.385410893926064E+00
             -0.163178615793601E+01
              0.109954538744281E+02
             -0.244080480137431E+01
             -0.245525901907012E+00
              0.221522325739169E+02
             -0.683224891677544E+01
             -0.786497310668606E+01
             -0.815444972201466E+01
             -0.492177639477271E+01
              0.476573657144952E+01
             -0.213479832781476E+01
              0.131298237740444E+01
             -0.439049268297325E+00
              0.281106586623250E+01
              0.456882462974190E+01
              0.520247445212513E+01
              0.776495716816953E+01
              0.455945078505832E+01
              0.524688229288252E+01
             -0.903993546006390E+01
             -0.887416982272126E+01
             -0.217867035437122E+01
             -0.836255301839692E+01
              0.134067901720284E+02
              0.113357693975126E+02
              0.541209651937886E+01
              0.146601896183237E+02
             -0.741992859852176E+01
             -0.321608278191223E+01
             -0.444078848630098E+01
              0.123556730054723E+02
 
 BEEF-vdW xc energy contributions
            1 :    -113.5788113329658     
            2 :     103.0168667120881     
            3 :    -85.23176155427154     
            4 :     65.30806319552376     
            5 :    -47.82508642339411     
            6 :     35.18664156918805     
            7 :    -27.28817903000791     
            8 :     22.41153815946417     
            9 :    -18.59287551224514     
           10 :     14.63973813460512     
           11 :    -10.38817758044482     
           12 :     6.320815297099699     
           13 :    -2.975250953725578     
           14 :    0.5511349029507926     
           15 :     1.117714282282634     
           16 :    -2.327939986964651     
           17 :     3.248378927716089     
           18 :    -3.835839545459635     
           19 :     3.955591185704634     
           20 :    -3.576407723053421     
           21 :     2.868620348616957     
           22 :    -2.130204383660981     
           23 :     1.611077455615373     
           24 :    -1.378795282359050     
           25 :     1.319880798163837     
           26 :    -1.256111403092603     
           27 :     1.075417741571812     
           28 :   -0.7874132784161247     
           29 :    0.4864038364820829     
           30 :   -0.2711733180965155     
           31 :    -10.41599960138748     
           32 :    -7.358906867878517     

     Writing all to output data dir ./BaSnO3.save/
 
     init_run     :      0.82s CPU      0.87s WALL (       1 calls)
     electrons    :     13.07s CPU     13.50s WALL (       1 calls)
     forces       :      0.25s CPU      0.26s WALL (       1 calls)
     stress       :      0.52s CPU      0.55s WALL (       1 calls)

     Called by init_run:
     wfcinit      :      0.30s CPU      0.31s WALL (       1 calls)
     wfcinit:atom :      0.00s CPU      0.00s WALL (      16 calls)
     wfcinit:wfcr :      0.27s CPU      0.28s WALL (      16 calls)
     potinit      :      0.40s CPU      0.42s WALL (       1 calls)
     hinit0       :      0.07s CPU      0.07s WALL (       1 calls)

     Called by electrons:
     c_bands      :     10.26s CPU     10.46s WALL (      12 calls)
     sum_band     :      1.38s CPU      1.41s WALL (      12 calls)
     v_of_rho     :      1.40s CPU      1.52s WALL (      13 calls)
     v_h          :      0.01s CPU      0.01s WALL (      13 calls)
     v_xc         :      4.51s CPU      4.95s WALL (      49 calls)
     newd         :      0.05s CPU      0.06s WALL (      13 calls)
     PAW_pot      :      0.23s CPU      0.24s WALL (      13 calls)
     mix_rho      :      0.04s CPU      0.04s WALL (      12 calls)
     vdW_kernel   :      0.25s CPU      0.26s WALL (       1 calls)

     Called by c_bands:
     init_us_2    :      0.11s CPU      0.11s WALL (     432 calls)
     init_us_2:cp :      0.11s CPU      0.11s WALL (     432 calls)
     cegterg      :      9.60s CPU      9.77s WALL (     192 calls)

     Called by sum_band:
     sum_band:wei :      0.00s CPU      0.01s WALL (      12 calls)
     sum_band:loo :      1.21s CPU      1.24s WALL (      12 calls)
     sum_band:buf :      0.02s CPU      0.03s WALL (     192 calls)
     sum_band:ini :      0.04s CPU      0.04s WALL (     192 calls)
     sum_band:cal :      0.11s CPU      0.11s WALL (     192 calls)
     sum_band:bec :      0.00s CPU      0.00s WALL (     192 calls)
     addusdens    :      0.07s CPU      0.08s WALL (      12 calls)
     addusd:skk   :      0.00s CPU      0.00s WALL (      24 calls)
     addusd:dgemm :      0.02s CPU      0.02s WALL (      24 calls)
     addusd:qvan2 :      0.02s CPU      0.02s WALL (      24 calls)

     Called by *egterg:
     cdiaghg      :      0.83s CPU      0.84s WALL (    1001 calls)
     cegterg:over :      0.42s CPU      0.43s WALL (     809 calls)
     cegterg:upda :      0.19s CPU      0.20s WALL (     809 calls)
     cegterg:last :      0.42s CPU      0.42s WALL (     550 calls)
     h_psi        :      7.31s CPU      7.45s WALL (    1017 calls)
     s_psi        :      0.33s CPU      0.33s WALL (    1017 calls)
     g_psi        :      0.02s CPU      0.02s WALL (     809 calls)

     Called by h_psi:
     h_psi:calbec :      0.46s CPU      0.47s WALL (    1017 calls)
     vloc_psi     :      6.45s CPU      6.57s WALL (    1017 calls)
     add_vuspsi   :      0.36s CPU      0.37s WALL (    1017 calls)

     General routines
     calbec       :      0.62s CPU      0.63s WALL (    1289 calls)
     fft          :      1.41s CPU      1.45s WALL (    2900 calls)
     ffts         :      0.01s CPU      0.01s WALL (      12 calls)
     fftw         :      6.99s CPU      7.13s WALL (   38062 calls)
 
     Parallel routines

     PAW routines
     PAW_pot      :      0.23s CPU      0.24s WALL (      13 calls)
     PAW_symme    :      0.02s CPU      0.02s WALL (      25 calls)
 
     PWSCF        :     18.08s CPU     19.57s WALL

 
   This run was terminated on:  16:39:55  20Jul2023            

=------------------------------------------------------------------------------=
   JOB DONE.
=------------------------------------------------------------------------------=
