
     Program PWSCF v.7.1 starts on 20Jul2023 at 17:25:45 

     This program is part of the open-source Quantum ESPRESSO suite
     for quantum simulation of materials; please cite
         "P. Giannozzi et al., J. Phys.:Condens. Matter 21 395502 (2009);
         "P. Giannozzi et al., J. Phys.:Condens. Matter 29 465901 (2017);
         "P. Giannozzi et al., J. Chem. Phys. 152 154105 (2020);
          URL http://www.quantum-espresso.org", 
     in publications or presentations arising from this work. More details at
     http://www.quantum-espresso.org/quote

     Parallel version (MPI & OpenMP), running on     128 processor cores
     Number of MPI processes:               128
     Threads/MPI process:                     1

     MPI processes distributed on     1 nodes
     1946807 MiB available memory on the printing compute node when the environment starts
 
     Reading input from espresso.pwi
Warning: card &CELL ignored
Warning: card / ignored

     Current dimensions of program PWSCF are:
     Max number of different atomic species (ntypx) = 10
     Max number of k-points (npk) =  40000
     Max angular momentum in pseudopotentials (lmaxx) =  4
     file O.pbe-n-kjpaw_psl.0.1.UPF: wavefunction(s)  2P renormalized

     **************************************************************************
     Initializing libbeef V0.1.2 with the BEEF-vdW functional.
     Citation: Wellendorff et al., PRB 85, 235149 (2012).
     **************************************************************************


     IMPORTANT: XC functional enforced from input :
     Exchange-correlation= BEEF-VDW
                           (   1   4  43  14   2   0   0)
     Any further DFT definition will be discarded
     Please, verify this is what you really want

 
     K-points division:     npool     =       4
     R & G space division:  proc/nbgrp/npool/nimage =      32
     Subspace diagonalization in iterative solution of the eigenvalue problem:
     a serial algorithm will be used

 
     Parallelization info
     --------------------
     sticks:   dense  smooth     PW     G-vecs:    dense   smooth      PW
     Min          64      64     18                 2980     2980     448
     Max          65      65     19                 2987     2987     451
     Sum        2077    2077    593                95489    95489   14365
 
     Using Slab Decomposition
 


     bravais-lattice index     =            6
     lattice parameter (alat)  =       7.3612  a.u.
     unit-cell volume          =     537.9949 (a.u.)^3
     number of atoms/cell      =            4
     number of atomic types    =            2
     number of electrons       =        40.00
     number of Kohn-Sham states=           20
     kinetic-energy cutoff     =     120.0000  Ry
     charge density cutoff     =     480.0000  Ry
     scf convergence threshold =      1.0E-08
     mixing beta               =       0.7000
     number of iterations used =            8  plain     mixing
     Exchange-correlation= BEEF-VDW
                           (   1   4  43  14   2   0   0)

     celldm(1)=   7.361175  celldm(2)=   0.000000  celldm(3)=   1.348766
     celldm(4)=   0.000000  celldm(5)=   0.000000  celldm(6)=   0.000000

     crystal axes: (cart. coord. in units of alat)
               a(1) = (   1.000000   0.000000   0.000000 )  
               a(2) = (   0.000000   1.000000   0.000000 )  
               a(3) = (   0.000000   0.000000   1.348766 )  

     reciprocal axes: (cart. coord. in units 2 pi/alat)
               b(1) = (  1.000000  0.000000  0.000000 )  
               b(2) = (  0.000000  1.000000  0.000000 )  
               b(3) = (  0.000000  0.000000  0.741418 )  


     PseudoPot. # 1 for Sn read from file:
     /trace/home/atimmins/packages/espresso/pseudo/Sn_pbe_v1.uspp.F.UPF
     MD5 check sum: 4cf58ce39ec5d5d420df3dd08604eb00
     Pseudo is Ultrasoft + core correction, Zval = 14.0
     Generated by new atomic code, or converted to UPF format
     Using radial grid of  891 points,  6 beta functions with: 
                l(1) =   0
                l(2) =   0
                l(3) =   1
                l(4) =   1
                l(5) =   2
                l(6) =   2
     Q(r) pseudized with  6 coefficients,  rinner =    1.200   1.200   1.200
                                                       1.200   1.200

     PseudoPot. # 2 for O  read from file:
     /trace/home/atimmins/packages/espresso/pseudo/O.pbe-n-kjpaw_psl.0.1.UPF
     MD5 check sum: 0234752ac141de4415c5fc33072bef88
     Pseudo is Projector augmented-wave + core cor, Zval =  6.0
     Generated using "atomic" code by A. Dal Corso  v.5.0.99 svn rev. 10869
     Shape of augmentation charge: BESSEL
     Using radial grid of 1095 points,  4 beta functions with: 
                l(1) =   0
                l(2) =   0
                l(3) =   1
                l(4) =   1
     Q(r) pseudized with 0 coefficients 


     atomic species   valence    mass     pseudopotential
        Sn            14.00   118.71000     Sn( 1.00)
        O              6.00    15.99900     O ( 1.00)

     16 Sym. Ops., with inversion, found ( 8 have fractional translation)


                                    s                        frac. trans.

      isym =  1     identity                                     

 cryst.   s( 1) = (     1          0          0      )
                  (     0          1          0      )
                  (     0          0          1      )

 cart.    s( 1) = (  1.0000000  0.0000000  0.0000000 )
                  (  0.0000000  1.0000000  0.0000000 )
                  (  0.0000000  0.0000000  1.0000000 )


      isym =  2     180 deg rotation - cart. axis [0,0,1]        

 cryst.   s( 2) = (    -1          0          0      )
                  (     0         -1          0      )
                  (     0          0          1      )

 cart.    s( 2) = ( -1.0000000  0.0000000  0.0000000 )
                  (  0.0000000 -1.0000000  0.0000000 )
                  (  0.0000000  0.0000000  1.0000000 )


      isym =  3     180 deg rotation - cart. axis [0,1,0]        

 cryst.   s( 3) = (    -1          0          0      )    f =( -0.5000000 )
                  (     0          1          0      )       ( -0.5000000 )
                  (     0          0         -1      )       (  0.0000000 )

 cart.    s( 3) = ( -1.0000000  0.0000000  0.0000000 )    f =( -0.5000000 )
                  (  0.0000000  1.0000000  0.0000000 )       ( -0.5000000 )
                  (  0.0000000  0.0000000 -1.0000000 )       (  0.0000000 )


      isym =  4     180 deg rotation - cart. axis [1,0,0]        

 cryst.   s( 4) = (     1          0          0      )    f =(  0.5000000 )
                  (     0         -1          0      )       ( -0.5000000 )
                  (     0          0         -1      )       (  0.0000000 )

 cart.    s( 4) = (  1.0000000  0.0000000  0.0000000 )    f =(  0.5000000 )
                  (  0.0000000 -1.0000000  0.0000000 )       ( -0.5000000 )
                  (  0.0000000  0.0000000 -1.0000000 )       (  0.0000000 )


      isym =  5     180 deg rotation - cart. axis [1,1,0]        

 cryst.   s( 5) = (     0          1          0      )
                  (     1          0          0      )
                  (     0          0         -1      )

 cart.    s( 5) = (  0.0000000  1.0000000  0.0000000 )
                  (  1.0000000  0.0000000  0.0000000 )
                  (  0.0000000  0.0000000 -1.0000000 )


      isym =  6     180 deg rotation - cart. axis [1,-1,0]       

 cryst.   s( 6) = (     0         -1          0      )
                  (    -1          0          0      )
                  (     0          0         -1      )

 cart.    s( 6) = (  0.0000000 -1.0000000  0.0000000 )
                  ( -1.0000000  0.0000000  0.0000000 )
                  (  0.0000000  0.0000000 -1.0000000 )


      isym =  7      90 deg rotation - cart. axis [0,0,-1]       

 cryst.   s( 7) = (     0         -1          0      )    f =(  0.5000000 )
                  (     1          0          0      )       ( -0.5000000 )
                  (     0          0          1      )       (  0.0000000 )

 cart.    s( 7) = (  0.0000000  1.0000000  0.0000000 )    f =(  0.5000000 )
                  ( -1.0000000  0.0000000  0.0000000 )       ( -0.5000000 )
                  (  0.0000000  0.0000000  1.0000000 )       (  0.0000000 )


      isym =  8      90 deg rotation - cart. axis [0,0,1]        

 cryst.   s( 8) = (     0          1          0      )    f =( -0.5000000 )
                  (    -1          0          0      )       ( -0.5000000 )
                  (     0          0          1      )       (  0.0000000 )

 cart.    s( 8) = (  0.0000000 -1.0000000  0.0000000 )    f =( -0.5000000 )
                  (  1.0000000  0.0000000  0.0000000 )       ( -0.5000000 )
                  (  0.0000000  0.0000000  1.0000000 )       (  0.0000000 )


      isym =  9     inversion                                    

 cryst.   s( 9) = (    -1          0          0      )    f =( -0.5000000 )
                  (     0         -1          0      )       ( -0.5000000 )
                  (     0          0         -1      )       (  0.0000000 )

 cart.    s( 9) = ( -1.0000000  0.0000000  0.0000000 )    f =( -0.5000000 )
                  (  0.0000000 -1.0000000  0.0000000 )       ( -0.5000000 )
                  (  0.0000000  0.0000000 -1.0000000 )       (  0.0000000 )


      isym = 10     inv. 180 deg rotation - cart. axis [0,0,1]   

 cryst.   s(10) = (     1          0          0      )    f =(  0.5000000 )
                  (     0          1          0      )       ( -0.5000000 )
                  (     0          0         -1      )       (  0.0000000 )

 cart.    s(10) = (  1.0000000  0.0000000  0.0000000 )    f =(  0.5000000 )
                  (  0.0000000  1.0000000  0.0000000 )       ( -0.5000000 )
                  (  0.0000000  0.0000000 -1.0000000 )       (  0.0000000 )


      isym = 11     inv. 180 deg rotation - cart. axis [0,1,0]   

 cryst.   s(11) = (     1          0          0      )
                  (     0         -1          0      )
                  (     0          0          1      )

 cart.    s(11) = (  1.0000000  0.0000000  0.0000000 )
                  (  0.0000000 -1.0000000  0.0000000 )
                  (  0.0000000  0.0000000  1.0000000 )


      isym = 12     inv. 180 deg rotation - cart. axis [1,0,0]   

 cryst.   s(12) = (    -1          0          0      )
                  (     0          1          0      )
                  (     0          0          1      )

 cart.    s(12) = ( -1.0000000  0.0000000  0.0000000 )
                  (  0.0000000  1.0000000  0.0000000 )
                  (  0.0000000  0.0000000  1.0000000 )


      isym = 13     inv. 180 deg rotation - cart. axis [1,1,0]   

 cryst.   s(13) = (     0         -1          0      )    f =( -0.5000000 )
                  (    -1          0          0      )       ( -0.5000000 )
                  (     0          0          1      )       (  0.0000000 )

 cart.    s(13) = (  0.0000000 -1.0000000  0.0000000 )    f =( -0.5000000 )
                  ( -1.0000000  0.0000000  0.0000000 )       ( -0.5000000 )
                  (  0.0000000  0.0000000  1.0000000 )       (  0.0000000 )


      isym = 14     inv. 180 deg rotation - cart. axis [1,-1,0]  

 cryst.   s(14) = (     0          1          0      )    f =(  0.5000000 )
                  (     1          0          0      )       ( -0.5000000 )
                  (     0          0          1      )       (  0.0000000 )

 cart.    s(14) = (  0.0000000  1.0000000  0.0000000 )    f =(  0.5000000 )
                  (  1.0000000  0.0000000  0.0000000 )       ( -0.5000000 )
                  (  0.0000000  0.0000000  1.0000000 )       (  0.0000000 )


      isym = 15     inv.  90 deg rotation - cart. axis [0,0,-1]  

 cryst.   s(15) = (     0          1          0      )
                  (    -1          0          0      )
                  (     0          0         -1      )

 cart.    s(15) = (  0.0000000 -1.0000000  0.0000000 )
                  (  1.0000000  0.0000000  0.0000000 )
                  (  0.0000000  0.0000000 -1.0000000 )


      isym = 16     inv.  90 deg rotation - cart. axis [0,0,1]   

 cryst.   s(16) = (     0         -1          0      )
                  (     1          0          0      )
                  (     0          0         -1      )

 cart.    s(16) = (  0.0000000  1.0000000  0.0000000 )
                  ( -1.0000000  0.0000000  0.0000000 )
                  (  0.0000000  0.0000000 -1.0000000 )


     point group D_4h(4/mmm)
     there are 10 classes
     the character table:

       E     2C4   C2    2C2'  2C2'' i     2S4   s_h   2s_v  2s_d 
A_1g   1.00  1.00  1.00  1.00  1.00  1.00  1.00  1.00  1.00  1.00
A_2g   1.00  1.00  1.00 -1.00 -1.00  1.00  1.00  1.00 -1.00 -1.00
B_1g   1.00 -1.00  1.00  1.00 -1.00  1.00 -1.00  1.00  1.00 -1.00
B_2g   1.00 -1.00  1.00 -1.00  1.00  1.00 -1.00  1.00 -1.00  1.00
E_g    2.00  0.00 -2.00  0.00  0.00  2.00  0.00 -2.00  0.00  0.00
A_1u   1.00  1.00  1.00  1.00  1.00 -1.00 -1.00 -1.00 -1.00 -1.00
A_2u   1.00  1.00  1.00 -1.00 -1.00 -1.00 -1.00 -1.00  1.00  1.00
B_1u   1.00 -1.00  1.00  1.00 -1.00 -1.00  1.00 -1.00 -1.00  1.00
B_2u   1.00 -1.00  1.00 -1.00  1.00 -1.00  1.00 -1.00  1.00 -1.00
E_u    2.00  0.00 -2.00  0.00  0.00 -2.00  0.00  2.00  0.00  0.00

     the symmetry operations in each class and the name of the first element:

     E        1
          identity                                               
     2C4      7    8
           90 deg rotation - cart. axis [0,0,-1]                 
     C2       2
          180 deg rotation - cart. axis [0,0,1]                  
     2C2'     3    4
          180 deg rotation - cart. axis [0,1,0]                  
     2C2''    5    6
          180 deg rotation - cart. axis [1,1,0]                  
     i        9
          inversion                                              
     2S4     15   16
          inv.  90 deg rotation - cart. axis [0,0,-1]            
     s_h     10
          inv. 180 deg rotation - cart. axis [0,0,1]             
     2s_v    11   12
          inv. 180 deg rotation - cart. axis [0,1,0]             
     2s_d    13   14
          inv. 180 deg rotation - cart. axis [1,1,0]             

   Cartesian axes

     site n.     atom                  positions (alat units)
         1           Sn  tau(   1) = (   0.0000000   0.5000000   0.2993526  )
         2           Sn  tau(   2) = (   0.5000000   0.0000000   1.0494139  )
         3           O   tau(   3) = (   0.5000000   0.5000000   0.0000000  )
         4           O   tau(   4) = (   0.0000000   0.0000000   0.0000000  )

   Crystallographic axes

     site n.     atom                  positions (cryst. coord.)
         1           Sn  tau(   1) = (  0.0000000  0.5000000  0.2219454  )
         2           Sn  tau(   2) = (  0.5000000  0.0000000  0.7780546  )
         3           O   tau(   3) = (  0.5000000  0.5000000  0.0000000  )
         4           O   tau(   4) = (  0.0000000  0.0000000  0.0000000  )

     number of k points=   126
                       cart. coord. in units 2pi/alat
        k(    1) = (   0.0000000   0.0000000   0.0000000), wk =   0.0020000
        k(    2) = (   0.0000000   0.0000000   0.0741418), wk =   0.0040000
        k(    3) = (   0.0000000   0.0000000   0.1482836), wk =   0.0040000
        k(    4) = (   0.0000000   0.0000000   0.2224255), wk =   0.0040000
        k(    5) = (   0.0000000   0.0000000   0.2965673), wk =   0.0040000
        k(    6) = (   0.0000000   0.0000000  -0.3707091), wk =   0.0020000
        k(    7) = (   0.0000000   0.1000000   0.0000000), wk =   0.0080000
        k(    8) = (   0.0000000   0.1000000   0.0741418), wk =   0.0160000
        k(    9) = (   0.0000000   0.1000000   0.1482836), wk =   0.0160000
        k(   10) = (   0.0000000   0.1000000   0.2224255), wk =   0.0160000
        k(   11) = (   0.0000000   0.1000000   0.2965673), wk =   0.0160000
        k(   12) = (   0.0000000   0.1000000  -0.3707091), wk =   0.0080000
        k(   13) = (   0.0000000   0.2000000   0.0000000), wk =   0.0080000
        k(   14) = (   0.0000000   0.2000000   0.0741418), wk =   0.0160000
        k(   15) = (   0.0000000   0.2000000   0.1482836), wk =   0.0160000
        k(   16) = (   0.0000000   0.2000000   0.2224255), wk =   0.0160000
        k(   17) = (   0.0000000   0.2000000   0.2965673), wk =   0.0160000
        k(   18) = (   0.0000000   0.2000000  -0.3707091), wk =   0.0080000
        k(   19) = (   0.0000000   0.3000000   0.0000000), wk =   0.0080000
        k(   20) = (   0.0000000   0.3000000   0.0741418), wk =   0.0160000
        k(   21) = (   0.0000000   0.3000000   0.1482836), wk =   0.0160000
        k(   22) = (   0.0000000   0.3000000   0.2224255), wk =   0.0160000
        k(   23) = (   0.0000000   0.3000000   0.2965673), wk =   0.0160000
        k(   24) = (   0.0000000   0.3000000  -0.3707091), wk =   0.0080000
        k(   25) = (   0.0000000   0.4000000   0.0000000), wk =   0.0080000
        k(   26) = (   0.0000000   0.4000000   0.0741418), wk =   0.0160000
        k(   27) = (   0.0000000   0.4000000   0.1482836), wk =   0.0160000
        k(   28) = (   0.0000000   0.4000000   0.2224255), wk =   0.0160000
        k(   29) = (   0.0000000   0.4000000   0.2965673), wk =   0.0160000
        k(   30) = (   0.0000000   0.4000000  -0.3707091), wk =   0.0080000
        k(   31) = (   0.0000000  -0.5000000   0.0000000), wk =   0.0040000
        k(   32) = (   0.0000000  -0.5000000   0.0741418), wk =   0.0080000
        k(   33) = (   0.0000000  -0.5000000   0.1482836), wk =   0.0080000
        k(   34) = (   0.0000000  -0.5000000   0.2224255), wk =   0.0080000
        k(   35) = (   0.0000000  -0.5000000   0.2965673), wk =   0.0080000
        k(   36) = (   0.0000000  -0.5000000  -0.3707091), wk =   0.0040000
        k(   37) = (   0.1000000   0.1000000   0.0000000), wk =   0.0080000
        k(   38) = (   0.1000000   0.1000000   0.0741418), wk =   0.0160000
        k(   39) = (   0.1000000   0.1000000   0.1482836), wk =   0.0160000
        k(   40) = (   0.1000000   0.1000000   0.2224255), wk =   0.0160000
        k(   41) = (   0.1000000   0.1000000   0.2965673), wk =   0.0160000
        k(   42) = (   0.1000000   0.1000000  -0.3707091), wk =   0.0080000
        k(   43) = (   0.1000000   0.2000000   0.0000000), wk =   0.0160000
        k(   44) = (   0.1000000   0.2000000   0.0741418), wk =   0.0320000
        k(   45) = (   0.1000000   0.2000000   0.1482836), wk =   0.0320000
        k(   46) = (   0.1000000   0.2000000   0.2224255), wk =   0.0320000
        k(   47) = (   0.1000000   0.2000000   0.2965673), wk =   0.0320000
        k(   48) = (   0.1000000   0.2000000  -0.3707091), wk =   0.0160000
        k(   49) = (   0.1000000   0.3000000   0.0000000), wk =   0.0160000
        k(   50) = (   0.1000000   0.3000000   0.0741418), wk =   0.0320000
        k(   51) = (   0.1000000   0.3000000   0.1482836), wk =   0.0320000
        k(   52) = (   0.1000000   0.3000000   0.2224255), wk =   0.0320000
        k(   53) = (   0.1000000   0.3000000   0.2965673), wk =   0.0320000
        k(   54) = (   0.1000000   0.3000000  -0.3707091), wk =   0.0160000
        k(   55) = (   0.1000000   0.4000000   0.0000000), wk =   0.0160000
        k(   56) = (   0.1000000   0.4000000   0.0741418), wk =   0.0320000
        k(   57) = (   0.1000000   0.4000000   0.1482836), wk =   0.0320000
        k(   58) = (   0.1000000   0.4000000   0.2224255), wk =   0.0320000
        k(   59) = (   0.1000000   0.4000000   0.2965673), wk =   0.0320000
        k(   60) = (   0.1000000   0.4000000  -0.3707091), wk =   0.0160000
        k(   61) = (   0.1000000  -0.5000000   0.0000000), wk =   0.0080000
        k(   62) = (   0.1000000  -0.5000000   0.0741418), wk =   0.0160000
        k(   63) = (   0.1000000  -0.5000000   0.1482836), wk =   0.0160000
        k(   64) = (   0.1000000  -0.5000000   0.2224255), wk =   0.0160000
        k(   65) = (   0.1000000  -0.5000000   0.2965673), wk =   0.0160000
        k(   66) = (   0.1000000  -0.5000000  -0.3707091), wk =   0.0080000
        k(   67) = (   0.2000000   0.2000000   0.0000000), wk =   0.0080000
        k(   68) = (   0.2000000   0.2000000   0.0741418), wk =   0.0160000
        k(   69) = (   0.2000000   0.2000000   0.1482836), wk =   0.0160000
        k(   70) = (   0.2000000   0.2000000   0.2224255), wk =   0.0160000
        k(   71) = (   0.2000000   0.2000000   0.2965673), wk =   0.0160000
        k(   72) = (   0.2000000   0.2000000  -0.3707091), wk =   0.0080000
        k(   73) = (   0.2000000   0.3000000   0.0000000), wk =   0.0160000
        k(   74) = (   0.2000000   0.3000000   0.0741418), wk =   0.0320000
        k(   75) = (   0.2000000   0.3000000   0.1482836), wk =   0.0320000
        k(   76) = (   0.2000000   0.3000000   0.2224255), wk =   0.0320000
        k(   77) = (   0.2000000   0.3000000   0.2965673), wk =   0.0320000
        k(   78) = (   0.2000000   0.3000000  -0.3707091), wk =   0.0160000
        k(   79) = (   0.2000000   0.4000000   0.0000000), wk =   0.0160000
        k(   80) = (   0.2000000   0.4000000   0.0741418), wk =   0.0320000
        k(   81) = (   0.2000000   0.4000000   0.1482836), wk =   0.0320000
        k(   82) = (   0.2000000   0.4000000   0.2224255), wk =   0.0320000
        k(   83) = (   0.2000000   0.4000000   0.2965673), wk =   0.0320000
        k(   84) = (   0.2000000   0.4000000  -0.3707091), wk =   0.0160000
        k(   85) = (   0.2000000  -0.5000000   0.0000000), wk =   0.0080000
        k(   86) = (   0.2000000  -0.5000000   0.0741418), wk =   0.0160000
        k(   87) = (   0.2000000  -0.5000000   0.1482836), wk =   0.0160000
        k(   88) = (   0.2000000  -0.5000000   0.2224255), wk =   0.0160000
        k(   89) = (   0.2000000  -0.5000000   0.2965673), wk =   0.0160000
        k(   90) = (   0.2000000  -0.5000000  -0.3707091), wk =   0.0080000
        k(   91) = (   0.3000000   0.3000000   0.0000000), wk =   0.0080000
        k(   92) = (   0.3000000   0.3000000   0.0741418), wk =   0.0160000
        k(   93) = (   0.3000000   0.3000000   0.1482836), wk =   0.0160000
        k(   94) = (   0.3000000   0.3000000   0.2224255), wk =   0.0160000
        k(   95) = (   0.3000000   0.3000000   0.2965673), wk =   0.0160000
        k(   96) = (   0.3000000   0.3000000  -0.3707091), wk =   0.0080000
        k(   97) = (   0.3000000   0.4000000   0.0000000), wk =   0.0160000
        k(   98) = (   0.3000000   0.4000000   0.0741418), wk =   0.0320000
        k(   99) = (   0.3000000   0.4000000   0.1482836), wk =   0.0320000
        k(  100) = (   0.3000000   0.4000000   0.2224255), wk =   0.0320000
        k(  101) = (   0.3000000   0.4000000   0.2965673), wk =   0.0320000
        k(  102) = (   0.3000000   0.4000000  -0.3707091), wk =   0.0160000
        k(  103) = (   0.3000000  -0.5000000   0.0000000), wk =   0.0080000
        k(  104) = (   0.3000000  -0.5000000   0.0741418), wk =   0.0160000
        k(  105) = (   0.3000000  -0.5000000   0.1482836), wk =   0.0160000
        k(  106) = (   0.3000000  -0.5000000   0.2224255), wk =   0.0160000
        k(  107) = (   0.3000000  -0.5000000   0.2965673), wk =   0.0160000
        k(  108) = (   0.3000000  -0.5000000  -0.3707091), wk =   0.0080000
        k(  109) = (   0.4000000   0.4000000   0.0000000), wk =   0.0080000
        k(  110) = (   0.4000000   0.4000000   0.0741418), wk =   0.0160000
        k(  111) = (   0.4000000   0.4000000   0.1482836), wk =   0.0160000
        k(  112) = (   0.4000000   0.4000000   0.2224255), wk =   0.0160000
        k(  113) = (   0.4000000   0.4000000   0.2965673), wk =   0.0160000
        k(  114) = (   0.4000000   0.4000000  -0.3707091), wk =   0.0080000
        k(  115) = (   0.4000000  -0.5000000   0.0000000), wk =   0.0080000
        k(  116) = (   0.4000000  -0.5000000   0.0741418), wk =   0.0160000
        k(  117) = (   0.4000000  -0.5000000   0.1482836), wk =   0.0160000
        k(  118) = (   0.4000000  -0.5000000   0.2224255), wk =   0.0160000
        k(  119) = (   0.4000000  -0.5000000   0.2965673), wk =   0.0160000
        k(  120) = (   0.4000000  -0.5000000  -0.3707091), wk =   0.0080000
        k(  121) = (  -0.5000000  -0.5000000   0.0000000), wk =   0.0020000
        k(  122) = (  -0.5000000  -0.5000000   0.0741418), wk =   0.0040000
        k(  123) = (  -0.5000000  -0.5000000   0.1482836), wk =   0.0040000
        k(  124) = (  -0.5000000  -0.5000000   0.2224255), wk =   0.0040000
        k(  125) = (  -0.5000000  -0.5000000   0.2965673), wk =   0.0040000
        k(  126) = (  -0.5000000  -0.5000000  -0.3707091), wk =   0.0020000

                       cryst. coord.
        k(    1) = (   0.0000000   0.0000000   0.0000000), wk =   0.0020000
        k(    2) = (   0.0000000   0.0000000   0.1000000), wk =   0.0040000
        k(    3) = (   0.0000000   0.0000000   0.2000000), wk =   0.0040000
        k(    4) = (   0.0000000   0.0000000   0.3000000), wk =   0.0040000
        k(    5) = (   0.0000000   0.0000000   0.4000000), wk =   0.0040000
        k(    6) = (   0.0000000   0.0000000  -0.5000000), wk =   0.0020000
        k(    7) = (   0.0000000   0.1000000   0.0000000), wk =   0.0080000
        k(    8) = (   0.0000000   0.1000000   0.1000000), wk =   0.0160000
        k(    9) = (   0.0000000   0.1000000   0.2000000), wk =   0.0160000
        k(   10) = (   0.0000000   0.1000000   0.3000000), wk =   0.0160000
        k(   11) = (   0.0000000   0.1000000   0.4000000), wk =   0.0160000
        k(   12) = (   0.0000000   0.1000000  -0.5000000), wk =   0.0080000
        k(   13) = (   0.0000000   0.2000000   0.0000000), wk =   0.0080000
        k(   14) = (   0.0000000   0.2000000   0.1000000), wk =   0.0160000
        k(   15) = (   0.0000000   0.2000000   0.2000000), wk =   0.0160000
        k(   16) = (   0.0000000   0.2000000   0.3000000), wk =   0.0160000
        k(   17) = (   0.0000000   0.2000000   0.4000000), wk =   0.0160000
        k(   18) = (   0.0000000   0.2000000  -0.5000000), wk =   0.0080000
        k(   19) = (   0.0000000   0.3000000   0.0000000), wk =   0.0080000
        k(   20) = (   0.0000000   0.3000000   0.1000000), wk =   0.0160000
        k(   21) = (   0.0000000   0.3000000   0.2000000), wk =   0.0160000
        k(   22) = (   0.0000000   0.3000000   0.3000000), wk =   0.0160000
        k(   23) = (   0.0000000   0.3000000   0.4000000), wk =   0.0160000
        k(   24) = (   0.0000000   0.3000000  -0.5000000), wk =   0.0080000
        k(   25) = (   0.0000000   0.4000000   0.0000000), wk =   0.0080000
        k(   26) = (   0.0000000   0.4000000   0.1000000), wk =   0.0160000
        k(   27) = (   0.0000000   0.4000000   0.2000000), wk =   0.0160000
        k(   28) = (   0.0000000   0.4000000   0.3000000), wk =   0.0160000
        k(   29) = (   0.0000000   0.4000000   0.4000000), wk =   0.0160000
        k(   30) = (   0.0000000   0.4000000  -0.5000000), wk =   0.0080000
        k(   31) = (   0.0000000  -0.5000000   0.0000000), wk =   0.0040000
        k(   32) = (   0.0000000  -0.5000000   0.1000000), wk =   0.0080000
        k(   33) = (   0.0000000  -0.5000000   0.2000000), wk =   0.0080000
        k(   34) = (   0.0000000  -0.5000000   0.3000000), wk =   0.0080000
        k(   35) = (   0.0000000  -0.5000000   0.4000000), wk =   0.0080000
        k(   36) = (   0.0000000  -0.5000000  -0.5000000), wk =   0.0040000
        k(   37) = (   0.1000000   0.1000000   0.0000000), wk =   0.0080000
        k(   38) = (   0.1000000   0.1000000   0.1000000), wk =   0.0160000
        k(   39) = (   0.1000000   0.1000000   0.2000000), wk =   0.0160000
        k(   40) = (   0.1000000   0.1000000   0.3000000), wk =   0.0160000
        k(   41) = (   0.1000000   0.1000000   0.4000000), wk =   0.0160000
        k(   42) = (   0.1000000   0.1000000  -0.5000000), wk =   0.0080000
        k(   43) = (   0.1000000   0.2000000   0.0000000), wk =   0.0160000
        k(   44) = (   0.1000000   0.2000000   0.1000000), wk =   0.0320000
        k(   45) = (   0.1000000   0.2000000   0.2000000), wk =   0.0320000
        k(   46) = (   0.1000000   0.2000000   0.3000000), wk =   0.0320000
        k(   47) = (   0.1000000   0.2000000   0.4000000), wk =   0.0320000
        k(   48) = (   0.1000000   0.2000000  -0.5000000), wk =   0.0160000
        k(   49) = (   0.1000000   0.3000000   0.0000000), wk =   0.0160000
        k(   50) = (   0.1000000   0.3000000   0.1000000), wk =   0.0320000
        k(   51) = (   0.1000000   0.3000000   0.2000000), wk =   0.0320000
        k(   52) = (   0.1000000   0.3000000   0.3000000), wk =   0.0320000
        k(   53) = (   0.1000000   0.3000000   0.4000000), wk =   0.0320000
        k(   54) = (   0.1000000   0.3000000  -0.5000000), wk =   0.0160000
        k(   55) = (   0.1000000   0.4000000   0.0000000), wk =   0.0160000
        k(   56) = (   0.1000000   0.4000000   0.1000000), wk =   0.0320000
        k(   57) = (   0.1000000   0.4000000   0.2000000), wk =   0.0320000
        k(   58) = (   0.1000000   0.4000000   0.3000000), wk =   0.0320000
        k(   59) = (   0.1000000   0.4000000   0.4000000), wk =   0.0320000
        k(   60) = (   0.1000000   0.4000000  -0.5000000), wk =   0.0160000
        k(   61) = (   0.1000000  -0.5000000   0.0000000), wk =   0.0080000
        k(   62) = (   0.1000000  -0.5000000   0.1000000), wk =   0.0160000
        k(   63) = (   0.1000000  -0.5000000   0.2000000), wk =   0.0160000
        k(   64) = (   0.1000000  -0.5000000   0.3000000), wk =   0.0160000
        k(   65) = (   0.1000000  -0.5000000   0.4000000), wk =   0.0160000
        k(   66) = (   0.1000000  -0.5000000  -0.5000000), wk =   0.0080000
        k(   67) = (   0.2000000   0.2000000   0.0000000), wk =   0.0080000
        k(   68) = (   0.2000000   0.2000000   0.1000000), wk =   0.0160000
        k(   69) = (   0.2000000   0.2000000   0.2000000), wk =   0.0160000
        k(   70) = (   0.2000000   0.2000000   0.3000000), wk =   0.0160000
        k(   71) = (   0.2000000   0.2000000   0.4000000), wk =   0.0160000
        k(   72) = (   0.2000000   0.2000000  -0.5000000), wk =   0.0080000
        k(   73) = (   0.2000000   0.3000000   0.0000000), wk =   0.0160000
        k(   74) = (   0.2000000   0.3000000   0.1000000), wk =   0.0320000
        k(   75) = (   0.2000000   0.3000000   0.2000000), wk =   0.0320000
        k(   76) = (   0.2000000   0.3000000   0.3000000), wk =   0.0320000
        k(   77) = (   0.2000000   0.3000000   0.4000000), wk =   0.0320000
        k(   78) = (   0.2000000   0.3000000  -0.5000000), wk =   0.0160000
        k(   79) = (   0.2000000   0.4000000   0.0000000), wk =   0.0160000
        k(   80) = (   0.2000000   0.4000000   0.1000000), wk =   0.0320000
        k(   81) = (   0.2000000   0.4000000   0.2000000), wk =   0.0320000
        k(   82) = (   0.2000000   0.4000000   0.3000000), wk =   0.0320000
        k(   83) = (   0.2000000   0.4000000   0.4000000), wk =   0.0320000
        k(   84) = (   0.2000000   0.4000000  -0.5000000), wk =   0.0160000
        k(   85) = (   0.2000000  -0.5000000   0.0000000), wk =   0.0080000
        k(   86) = (   0.2000000  -0.5000000   0.1000000), wk =   0.0160000
        k(   87) = (   0.2000000  -0.5000000   0.2000000), wk =   0.0160000
        k(   88) = (   0.2000000  -0.5000000   0.3000000), wk =   0.0160000
        k(   89) = (   0.2000000  -0.5000000   0.4000000), wk =   0.0160000
        k(   90) = (   0.2000000  -0.5000000  -0.5000000), wk =   0.0080000
        k(   91) = (   0.3000000   0.3000000   0.0000000), wk =   0.0080000
        k(   92) = (   0.3000000   0.3000000   0.1000000), wk =   0.0160000
        k(   93) = (   0.3000000   0.3000000   0.2000000), wk =   0.0160000
        k(   94) = (   0.3000000   0.3000000   0.3000000), wk =   0.0160000
        k(   95) = (   0.3000000   0.3000000   0.4000000), wk =   0.0160000
        k(   96) = (   0.3000000   0.3000000  -0.5000000), wk =   0.0080000
        k(   97) = (   0.3000000   0.4000000   0.0000000), wk =   0.0160000
        k(   98) = (   0.3000000   0.4000000   0.1000000), wk =   0.0320000
        k(   99) = (   0.3000000   0.4000000   0.2000000), wk =   0.0320000
        k(  100) = (   0.3000000   0.4000000   0.3000000), wk =   0.0320000
        k(  101) = (   0.3000000   0.4000000   0.4000000), wk =   0.0320000
        k(  102) = (   0.3000000   0.4000000  -0.5000000), wk =   0.0160000
        k(  103) = (   0.3000000  -0.5000000   0.0000000), wk =   0.0080000
        k(  104) = (   0.3000000  -0.5000000   0.1000000), wk =   0.0160000
        k(  105) = (   0.3000000  -0.5000000   0.2000000), wk =   0.0160000
        k(  106) = (   0.3000000  -0.5000000   0.3000000), wk =   0.0160000
        k(  107) = (   0.3000000  -0.5000000   0.4000000), wk =   0.0160000
        k(  108) = (   0.3000000  -0.5000000  -0.5000000), wk =   0.0080000
        k(  109) = (   0.4000000   0.4000000   0.0000000), wk =   0.0080000
        k(  110) = (   0.4000000   0.4000000   0.1000000), wk =   0.0160000
        k(  111) = (   0.4000000   0.4000000   0.2000000), wk =   0.0160000
        k(  112) = (   0.4000000   0.4000000   0.3000000), wk =   0.0160000
        k(  113) = (   0.4000000   0.4000000   0.4000000), wk =   0.0160000
        k(  114) = (   0.4000000   0.4000000  -0.5000000), wk =   0.0080000
        k(  115) = (   0.4000000  -0.5000000   0.0000000), wk =   0.0080000
        k(  116) = (   0.4000000  -0.5000000   0.1000000), wk =   0.0160000
        k(  117) = (   0.4000000  -0.5000000   0.2000000), wk =   0.0160000
        k(  118) = (   0.4000000  -0.5000000   0.3000000), wk =   0.0160000
        k(  119) = (   0.4000000  -0.5000000   0.4000000), wk =   0.0160000
        k(  120) = (   0.4000000  -0.5000000  -0.5000000), wk =   0.0080000
        k(  121) = (  -0.5000000  -0.5000000   0.0000000), wk =   0.0020000
        k(  122) = (  -0.5000000  -0.5000000   0.1000000), wk =   0.0040000
        k(  123) = (  -0.5000000  -0.5000000   0.2000000), wk =   0.0040000
        k(  124) = (  -0.5000000  -0.5000000   0.3000000), wk =   0.0040000
        k(  125) = (  -0.5000000  -0.5000000   0.4000000), wk =   0.0040000
        k(  126) = (  -0.5000000  -0.5000000  -0.5000000), wk =   0.0020000

     Dense  grid:    95489 G-vectors     FFT dimensions: (  54,  54,  72)

     Dynamical RAM for                 wfc:       0.11 MB

     Dynamical RAM for     wfc (w. buffer):       3.76 MB

     Dynamical RAM for           str. fact:       0.09 MB

     Dynamical RAM for           local pot:       0.00 MB

     Dynamical RAM for          nlocal pot:       0.30 MB

     Dynamical RAM for                qrad:       3.52 MB

     Dynamical RAM for          rho,v,vnew:       0.34 MB

     Dynamical RAM for               rhoin:       0.11 MB

     Dynamical RAM for            rho*nmix:       0.73 MB

     Dynamical RAM for           G-vectors:       0.19 MB

     Dynamical RAM for          h,s,v(r/c):       0.07 MB

     Dynamical RAM for          <psi|beta>:       0.02 MB

     Dynamical RAM for                 psi:       0.23 MB

     Dynamical RAM for                hpsi:       0.23 MB

     Dynamical RAM for                spsi:       0.23 MB

     Dynamical RAM for      wfcinit/wfcrot:       0.31 MB

     Dynamical RAM for           addusdens:       2.17 MB

     Dynamical RAM for          addusforce:       2.19 MB

     Dynamical RAM for         addusstress:       2.31 MB

     Estimated static dynamical RAM per process >       8.77 MB

     Estimated max dynamical RAM per process >      11.81 MB

     Estimated total dynamical RAM >       1.41 GB

     Initial potential from superposition of free atoms

     starting charge      37.9999, renormalised to      40.0000


     %%%%%%%%%%%%%%%%%%%%%%%%%%%%%%%%%%%%%%%%%%%%%%%%%%%%%%%%%%%%%%%%%%%%%%%%
     %                                                                      %
     % You are using vdW-DF, which was implemented by the Thonhauser group. %
     % Please cite the following two papers that made this development      %
     % possible and the two reviews that describe the various versions:     %
     %                                                                      %
     %   T. Thonhauser et al., PRL 115, 136402 (2015).                      %
     %   T. Thonhauser et al., PRB 76, 125112 (2007).                       %
     %   K. Berland et al., Rep. Prog. Phys. 78, 066501 (2015).             %
     %   D.C. Langreth et al., J. Phys.: Condens. Matter 21, 084203 (2009). %
     %                                                                      %
     % If you are calculating stress with vdW-DF, please also cite:         %
     %                                                                      %
     %   R. Sabatini et al., J. Phys.: Condens. Matter 24, 424209 (2012).   %
     %                                                                      %
     %%%%%%%%%%%%%%%%%%%%%%%%%%%%%%%%%%%%%%%%%%%%%%%%%%%%%%%%%%%%%%%%%%%%%%%%

     %%%%%%%%%%%%%%%%%%%%%%%%%%%%%%%%%%%%%%%%%%%%%%%%%%%%%%%%%%%%%%%%%%%%%%%%
     %                                                                      %
     %  vdW-DF NEWS:                                                        %
     %                                                                      %
     %  * vdW-DF3 is now available. DOI: 10.1021/acs.jctc.0c00471           %
     %    use with input_dft = 'vdW-DF3-opt1' or 'vdW-DF3-opt2'             %
     %                                                                      %
     %  * Unscreened and range-separated vdW-DF hybrid functionals          %
     %    DOI: 10.1063/1.4986522 and 10.1088/1361-648X/ac2ad2               %
     %    use with input_dft = 'vdW-DF-cx0' (etc) and 'vdW-DF-ahcx'         %
     %                                                                      %
     %%%%%%%%%%%%%%%%%%%%%%%%%%%%%%%%%%%%%%%%%%%%%%%%%%%%%%%%%%%%%%%%%%%%%%%%


     Carrying out vdW-DF run using the following parameters:
     Nqs    =  20  Npoints =  1024  r_max =  100.000
     q_mesh =  0.00001000  0.04494208  0.09755937  0.15916263
               0.23128650  0.31572767  0.41458969  0.53033537
               0.66584808  0.82450364  1.01025438  1.22772762
               1.48234092  1.78043706  2.12944203  2.53805004
               3.01644009  3.57652955  4.23227104  5.00000000


     -----------------------------------------------
     Non-local corr. energy    =       1.08593603 Ry
     -----------------------------------------------

     Starting wfcs are   26 randomized atomic wfcs
     Checking if some PAW data can be deallocated... 
       PAW data deallocated on   64 nodes for type:  2

     total cpu time spent up to now is        1.2 secs

     Self-consistent Calculation

     iteration #  1     ecut=   120.00 Ry     beta= 0.70
     Davidson diagonalization with overlap

---- Real-time Memory Report at c_bands before calling an iterative solver
           146 MiB given to the printing process from OS
             0 MiB allocation reported by mallinfo(arena+hblkhd)
       1942873 MiB available memory on the node where the printing process lives
------------------
     ethr =  1.00E-02,  avg # of iterations =  2.0


     -----------------------------------------------
     Non-local corr. energy    =       1.06367848 Ry
     -----------------------------------------------


     total cpu time spent up to now is        2.0 secs

     total energy              =    -414.06896859 Ry
     estimated scf accuracy    <       1.45821224 Ry

     iteration #  2     ecut=   120.00 Ry     beta= 0.70
     Davidson diagonalization with overlap

---- Real-time Memory Report at c_bands before calling an iterative solver
           154 MiB given to the printing process from OS
             0 MiB allocation reported by mallinfo(arena+hblkhd)
       1942488 MiB available memory on the node where the printing process lives
------------------
     ethr =  3.65E-03,  avg # of iterations =  3.1


     -----------------------------------------------
     Non-local corr. energy    =       1.05646138 Ry
     -----------------------------------------------


     total cpu time spent up to now is        3.2 secs

     total energy              =    -414.37052076 Ry
     estimated scf accuracy    <       1.30002068 Ry

     iteration #  3     ecut=   120.00 Ry     beta= 0.70
     Davidson diagonalization with overlap

---- Real-time Memory Report at c_bands before calling an iterative solver
           157 MiB given to the printing process from OS
             0 MiB allocation reported by mallinfo(arena+hblkhd)
       1942330 MiB available memory on the node where the printing process lives
------------------
     ethr =  3.25E-03,  avg # of iterations =  4.0


     -----------------------------------------------
     Non-local corr. energy    =       1.06527892 Ry
     -----------------------------------------------


     total cpu time spent up to now is        4.3 secs

     total energy              =    -414.66203497 Ry
     estimated scf accuracy    <       0.19624448 Ry

     iteration #  4     ecut=   120.00 Ry     beta= 0.70
     Davidson diagonalization with overlap

---- Real-time Memory Report at c_bands before calling an iterative solver
           158 MiB given to the printing process from OS
             0 MiB allocation reported by mallinfo(arena+hblkhd)
       1942474 MiB available memory on the node where the printing process lives
------------------
     ethr =  4.91E-04,  avg # of iterations =  3.2


     -----------------------------------------------
     Non-local corr. energy    =       1.06719603 Ry
     -----------------------------------------------


     total cpu time spent up to now is        5.3 secs

     total energy              =    -414.70171486 Ry
     estimated scf accuracy    <       0.00115038 Ry

     iteration #  5     ecut=   120.00 Ry     beta= 0.70
     Davidson diagonalization with overlap

---- Real-time Memory Report at c_bands before calling an iterative solver
           160 MiB given to the printing process from OS
             0 MiB allocation reported by mallinfo(arena+hblkhd)
       1942435 MiB available memory on the node where the printing process lives
------------------
     ethr =  2.88E-06,  avg # of iterations =  5.2


     -----------------------------------------------
     Non-local corr. energy    =       1.06642226 Ry
     -----------------------------------------------


     total cpu time spent up to now is        6.6 secs

     total energy              =    -414.70215122 Ry
     estimated scf accuracy    <       0.00481139 Ry

     iteration #  6     ecut=   120.00 Ry     beta= 0.70
     Davidson diagonalization with overlap

---- Real-time Memory Report at c_bands before calling an iterative solver
           160 MiB given to the printing process from OS
             0 MiB allocation reported by mallinfo(arena+hblkhd)
       1942445 MiB available memory on the node where the printing process lives
------------------
     ethr =  2.88E-06,  avg # of iterations =  4.2


     -----------------------------------------------
     Non-local corr. energy    =       1.06659697 Ry
     -----------------------------------------------


     total cpu time spent up to now is        7.8 secs

     total energy              =    -414.70320150 Ry
     estimated scf accuracy    <       0.00011263 Ry

     iteration #  7     ecut=   120.00 Ry     beta= 0.70
     Davidson diagonalization with overlap

---- Real-time Memory Report at c_bands before calling an iterative solver
           161 MiB given to the printing process from OS
             0 MiB allocation reported by mallinfo(arena+hblkhd)
       1942381 MiB available memory on the node where the printing process lives
------------------
     ethr =  2.82E-07,  avg # of iterations =  2.6


     -----------------------------------------------
     Non-local corr. energy    =       1.06662142 Ry
     -----------------------------------------------


     total cpu time spent up to now is        8.7 secs

     total energy              =    -414.70322443 Ry
     estimated scf accuracy    <       0.00000037 Ry

     iteration #  8     ecut=   120.00 Ry     beta= 0.70
     Davidson diagonalization with overlap

---- Real-time Memory Report at c_bands before calling an iterative solver
           161 MiB given to the printing process from OS
             0 MiB allocation reported by mallinfo(arena+hblkhd)
       1942423 MiB available memory on the node where the printing process lives
------------------
     ethr =  9.31E-10,  avg # of iterations =  5.5


     -----------------------------------------------
     Non-local corr. energy    =       1.06660337 Ry
     -----------------------------------------------


     total cpu time spent up to now is       10.2 secs

     total energy              =    -414.70322419 Ry
     estimated scf accuracy    <       0.00000401 Ry

     iteration #  9     ecut=   120.00 Ry     beta= 0.70
     Davidson diagonalization with overlap

---- Real-time Memory Report at c_bands before calling an iterative solver
           161 MiB given to the printing process from OS
             0 MiB allocation reported by mallinfo(arena+hblkhd)
       1942374 MiB available memory on the node where the printing process lives
------------------
     ethr =  9.31E-10,  avg # of iterations =  5.5


     -----------------------------------------------
     Non-local corr. energy    =       1.06661065 Ry
     -----------------------------------------------


     total cpu time spent up to now is       11.6 secs

     total energy              =    -414.70322519 Ry
     estimated scf accuracy    <       0.00000044 Ry

     iteration # 10     ecut=   120.00 Ry     beta= 0.70
     Davidson diagonalization with overlap

---- Real-time Memory Report at c_bands before calling an iterative solver
           161 MiB given to the printing process from OS
             0 MiB allocation reported by mallinfo(arena+hblkhd)
       1942425 MiB available memory on the node where the printing process lives
------------------
     ethr =  9.31E-10,  avg # of iterations =  3.0


     -----------------------------------------------
     Non-local corr. energy    =       1.06661250 Ry
     -----------------------------------------------


     total cpu time spent up to now is       12.5 secs

     End of self-consistent calculation

          k = 0.0000 0.0000 0.0000 ( 11927 PWs)   bands (ev):

   -14.1275 -13.8427 -13.8280 -13.8280 -13.8212 -13.7951 -13.7865 -13.7638
   -13.7488 -13.7488 -11.5931  -9.4518   0.6889   1.9788   2.3957   2.3957
     4.9200   5.1875   5.1875   7.8400

     occupation numbers 
     1.0000   1.0000   1.0000   1.0000   1.0000   1.0000   1.0000   1.0000
     1.0000   1.0000   1.0000   1.0000   1.0000   1.0000   1.0000   1.0000
     1.0000   1.0000   1.0000   1.0000

          k = 0.0000 0.0000 0.0741 ( 11931 PWs)   bands (ev):

   -14.1270 -13.8432 -13.8269 -13.8269 -13.8208 -13.7946 -13.7869 -13.7642
   -13.7499 -13.7499 -11.5918  -9.4518   0.5179   2.2286   2.4009   2.4009
     4.9167   5.1864   5.1864   7.7234

     occupation numbers 
     1.0000   1.0000   1.0000   1.0000   1.0000   1.0000   1.0000   1.0000
     1.0000   1.0000   1.0000   1.0000   1.0000   1.0000   1.0000   1.0000
     1.0000   1.0000   1.0000   1.0000

          k = 0.0000 0.0000 0.1483 ( 11967 PWs)   bands (ev):

   -14.1257 -13.8445 -13.8241 -13.8241 -13.8196 -13.7932 -13.7880 -13.7654
   -13.7530 -13.7530 -11.5885  -9.4519   0.2107   2.4147   2.4147   2.7663
     4.9080   5.1836   5.1836   7.3848

     occupation numbers 
     1.0000   1.0000   1.0000   1.0000   1.0000   1.0000   1.0000   1.0000
     1.0000   1.0000   1.0000   1.0000   1.0000   1.0000   1.0000   1.0000
     1.0000   1.0000   1.0000   1.0000

          k = 0.0000 0.0000 0.2224 ( 11963 PWs)   bands (ev):

   -14.1241 -13.8461 -13.8201 -13.8201 -13.8182 -13.7913 -13.7895 -13.7671
   -13.7572 -13.7572 -11.5843  -9.4519  -0.0560   2.4318   2.4318   3.3910
     4.8974   5.1800   5.1800   6.8863

     occupation numbers 
     1.0000   1.0000   1.0000   1.0000   1.0000   1.0000   1.0000   1.0000
     1.0000   1.0000   1.0000   1.0000   1.0000   1.0000   1.0000   1.0000
     1.0000   1.0000   1.0000   1.0000

          k = 0.0000 0.0000 0.2966 ( 11942 PWs)   bands (ev):

   -14.1228 -13.8474 -13.8168 -13.8165 -13.8165 -13.7908 -13.7895 -13.7687
   -13.7610 -13.7610 -11.5810  -9.4520  -0.2281   2.4459   2.4459   3.9746
     4.8888   5.1770   5.1770   6.3618

     occupation numbers 
     1.0000   1.0000   1.0000   1.0000   1.0000   1.0000   1.0000   1.0000
     1.0000   1.0000   1.0000   1.0000   1.0000   1.0000   1.0000   1.0000
     1.0000   1.0000   1.0000   1.0000

          k = 0.0000 0.0000-0.3707 ( 11898 PWs)   bands (ev):

   -14.1223 -13.8479 -13.8163 -13.8150 -13.8150 -13.7914 -13.7887 -13.7694
   -13.7626 -13.7626 -11.5797  -9.4520  -0.2871   2.4513   2.4513   4.2600
     4.8856   5.1758   5.1758   6.0930

     occupation numbers 
     1.0000   1.0000   1.0000   1.0000   1.0000   1.0000   1.0000   1.0000
     1.0000   1.0000   1.0000   1.0000   1.0000   1.0000   1.0000   1.0000
     1.0000   1.0000   1.0000   1.0000

          k = 0.0000 0.1000 0.0000 ( 11937 PWs)   bands (ev):

   -14.1225 -13.8413 -13.8277 -13.8269 -13.8221 -13.7927 -13.7865 -13.7786
   -13.7503 -13.7498 -11.5310  -9.4938   0.6688   1.9698   2.4269   2.4552
     4.7759   5.1072   5.1224   7.8316

     occupation numbers 
     1.0000   1.0000   1.0000   1.0000   1.0000   1.0000   1.0000   1.0000
     1.0000   1.0000   1.0000   1.0000   1.0000   1.0000   1.0000   1.0000
     1.0000   1.0000   1.0000   1.0000

          k = 0.0000 0.1000 0.0741 ( 11944 PWs)   bands (ev):

   -14.1221 -13.8419 -13.8274 -13.8259 -13.8213 -13.7922 -13.7868 -13.7793
   -13.7511 -13.7507 -11.5298  -9.4938   0.5169   2.1507   2.4602   2.4694
     4.7735   5.1063   5.1295   7.7286

     occupation numbers 
     1.0000   1.0000   1.0000   1.0000   1.0000   1.0000   1.0000   1.0000
     1.0000   1.0000   1.0000   1.0000   1.0000   1.0000   1.0000   1.0000
     1.0000   1.0000   1.0000   1.0000

          k = 0.0000 0.1000 0.1483 ( 11944 PWs)   bands (ev):

   -14.1209 -13.8432 -13.8261 -13.8232 -13.8195 -13.7908 -13.7875 -13.7810
   -13.7533 -13.7533 -11.5264  -9.4937   0.2330   2.3430   2.4735   2.7613
     4.7694   5.1037   5.1563   7.4264

     occupation numbers 
     1.0000   1.0000   1.0000   1.0000   1.0000   1.0000   1.0000   1.0000
     1.0000   1.0000   1.0000   1.0000   1.0000   1.0000   1.0000   1.0000
     1.0000   1.0000   1.0000   1.0000

          k = 0.0000 0.1000 0.2224 ( 11932 PWs)   bands (ev):

   -14.1195 -13.8448 -13.8240 -13.8197 -13.8178 -13.7888 -13.7881 -13.7835
   -13.7569 -13.7562 -11.5222  -9.4936  -0.0193   2.3938   2.4900   3.2418
     4.7721   5.1004   5.2261   6.9671

     occupation numbers 
     1.0000   1.0000   1.0000   1.0000   1.0000   1.0000   1.0000   1.0000
     1.0000   1.0000   1.0000   1.0000   1.0000   1.0000   1.0000   1.0000
     1.0000   1.0000   1.0000   1.0000

          k = 0.0000 0.1000 0.2966 ( 11917 PWs)   bands (ev):

   -14.1183 -13.8461 -13.8213 -13.8174 -13.8163 -13.7879 -13.7869 -13.7861
   -13.7602 -13.7589 -11.5189  -9.4936  -0.1838   2.4182   2.5036   3.6350
     4.7859   5.0977   5.3894   6.4467

     occupation numbers 
     1.0000   1.0000   1.0000   1.0000   1.0000   1.0000   1.0000   1.0000
     1.0000   1.0000   1.0000   1.0000   1.0000   1.0000   1.0000   1.0000
     1.0000   1.0000   1.0000   1.0000

          k = 0.0000 0.1000-0.3707 ( 11906 PWs)   bands (ev):

   -14.1178 -13.8466 -13.8189 -13.8188 -13.8149 -13.7877 -13.7872 -13.7861
   -13.7616 -13.7600 -11.5176  -9.4935  -0.2405   2.4266   2.5088   3.7839
     4.7954   5.0966   5.5755   6.1161

     occupation numbers 
     1.0000   1.0000   1.0000   1.0000   1.0000   1.0000   1.0000   1.0000
     1.0000   1.0000   1.0000   1.0000   1.0000   1.0000   1.0000   1.0000
     1.0000   1.0000   1.0000   1.0000

          k = 0.0000 0.2000 0.0000 ( 11932 PWs)   bands (ev):

   -14.1082 -13.8526 -13.8275 -13.8246 -13.8235 -13.8059 -13.7860 -13.7859
   -13.7528 -13.7510 -11.3553  -9.6198   0.6294   1.8933   2.5419   2.6297
     4.5020   4.8788   4.9671   7.6904

     occupation numbers 
     1.0000   1.0000   1.0000   1.0000   1.0000   1.0000   1.0000   1.0000
     1.0000   1.0000   1.0000   1.0000   1.0000   1.0000   1.0000   1.0000
     1.0000   1.0000   1.0000   1.0000

          k = 0.0000 0.2000 0.0741 ( 11929 PWs)   bands (ev):

   -14.1079 -13.8535 -13.8287 -13.8231 -13.8226 -13.8062 -13.7859 -13.7854
   -13.7532 -13.7515 -11.3540  -9.6197   0.5209   1.9950   2.5800   2.6342
     4.5114   4.8781   4.9927   7.6179

     occupation numbers 
     1.0000   1.0000   1.0000   1.0000   1.0000   1.0000   1.0000   1.0000
     1.0000   1.0000   1.0000   1.0000   1.0000   1.0000   1.0000   1.0000
     1.0000   1.0000   1.0000   1.0000

          k = 0.0000 0.2000 0.1483 ( 11945 PWs)   bands (ev):

   -14.1071 -13.8557 -13.8298 -13.8214 -13.8203 -13.8072 -13.7853 -13.7839
   -13.7546 -13.7530 -11.3506  -9.6193   0.2988   2.1766   2.6460   2.6952
     4.5365   4.8764   5.0892   7.4020

     occupation numbers 
     1.0000   1.0000   1.0000   1.0000   1.0000   1.0000   1.0000   1.0000
     1.0000   1.0000   1.0000   1.0000   1.0000   1.0000   1.0000   1.0000
     1.0000   1.0000   1.0000   1.0000

          k = 0.0000 0.2000 0.2224 ( 11920 PWs)   bands (ev):

   -14.1062 -13.8581 -13.8296 -13.8213 -13.8177 -13.8087 -13.7837 -13.7818
   -13.7566 -13.7552 -11.3464  -9.6188   0.0880   2.3092   2.6608   2.8473
     4.5646   4.8741   5.3034   7.0546

     occupation numbers 
     1.0000   1.0000   1.0000   1.0000   1.0000   1.0000   1.0000   1.0000
     1.0000   1.0000   1.0000   1.0000   1.0000   1.0000   1.0000   1.0000
     1.0000   1.0000   1.0000   1.0000

          k = 0.0000 0.2000 0.2966 ( 11923 PWs)   bands (ev):

   -14.1054 -13.8599 -13.8281 -13.8230 -13.8153 -13.8102 -13.7816 -13.7797
   -13.7587 -13.7572 -11.3431  -9.6184  -0.0538   2.3835   2.6729   2.9564
     4.5827   4.8722   5.6576   6.6104

     occupation numbers 
     1.0000   1.0000   1.0000   1.0000   1.0000   1.0000   1.0000   1.0000
     1.0000   1.0000   1.0000   1.0000   1.0000   1.0000   1.0000   1.0000
     1.0000   1.0000   1.0000   1.0000

          k = 0.0000 0.2000-0.3707 ( 11922 PWs)   bands (ev):

   -14.1051 -13.8605 -13.8264 -13.8249 -13.8140 -13.8112 -13.7805 -13.7788
   -13.7597 -13.7581 -11.3418  -9.6183  -0.1033   2.4083   2.6776   2.9923
     4.5884   4.8714   6.0603   6.1781

     occupation numbers 
     1.0000   1.0000   1.0000   1.0000   1.0000   1.0000   1.0000   1.0000
     1.0000   1.0000   1.0000   1.0000   1.0000   1.0000   1.0000   1.0000
     1.0000   1.0000   1.0000   1.0000

          k = 0.0000 0.3000 0.0000 ( 11956 PWs)   bands (ev):

   -14.0859 -13.9037 -13.8281 -13.8275 -13.8181 -13.8075 -13.7834 -13.7757
   -13.7577 -13.7510 -11.0913  -9.8274   0.6294   1.6631   2.7680   2.9073
     4.2602   4.5353   4.8924   7.2300

     occupation numbers 
     1.0000   1.0000   1.0000   1.0000   1.0000   1.0000   1.0000   1.0000
     1.0000   1.0000   1.0000   1.0000   1.0000   1.0000   1.0000   1.0000
     1.0000   1.0000   1.0000   1.0000

          k = 0.0000 0.3000 0.0741 ( 11945 PWs)   bands (ev):

   -14.0858 -13.9046 -13.8306 -13.8258 -13.8174 -13.8077 -13.7827 -13.7751
   -13.7575 -13.7513 -11.0901  -9.8270   0.5642   1.7174   2.7582   2.9110
     4.2618   4.5352   4.9598   7.2013

     occupation numbers 
     1.0000   1.0000   1.0000   1.0000   1.0000   1.0000   1.0000   1.0000
     1.0000   1.0000   1.0000   1.0000   1.0000   1.0000   1.0000   1.0000
     1.0000   1.0000   1.0000   1.0000

          k = 0.0000 0.3000 0.1483 ( 11941 PWs)   bands (ev):

   -14.0856 -13.9068 -13.8330 -13.8257 -13.8158 -13.8083 -13.7807 -13.7736
   -13.7573 -13.7521 -11.0869  -9.8261   0.4179   1.8432   2.7222   2.9207
     4.2573   4.5349   5.1666   7.1084

     occupation numbers 
     1.0000   1.0000   1.0000   1.0000   1.0000   1.0000   1.0000   1.0000
     1.0000   1.0000   1.0000   1.0000   1.0000   1.0000   1.0000   1.0000
     1.0000   1.0000   1.0000   1.0000

          k = 0.0000 0.3000 0.2224 ( 11932 PWs)   bands (ev):

   -14.0853 -13.9095 -13.8344 -13.8274 -13.8139 -13.8090 -13.7775 -13.7715
   -13.7575 -13.7533 -11.0828  -9.8250   0.2672   1.9902   2.6522   2.9329
     4.2424   4.5345   5.4966   6.9354

     occupation numbers 
     1.0000   1.0000   1.0000   1.0000   1.0000   1.0000   1.0000   1.0000
     1.0000   1.0000   1.0000   1.0000   1.0000   1.0000   1.0000   1.0000
     1.0000   1.0000   1.0000   1.0000

          k = 0.0000 0.3000 0.2966 ( 11944 PWs)   bands (ev):

   -14.0851 -13.9116 -13.8343 -13.8300 -13.8125 -13.8095 -13.7745 -13.7694
   -13.7582 -13.7546 -11.0796  -9.8240   0.1608   2.1278   2.5595   2.9428
     4.2273   4.5341   5.8974   6.6686

     occupation numbers 
     1.0000   1.0000   1.0000   1.0000   1.0000   1.0000   1.0000   1.0000
     1.0000   1.0000   1.0000   1.0000   1.0000   1.0000   1.0000   1.0000
     1.0000   1.0000   1.0000   1.0000

          k = 0.0000 0.3000-0.3707 ( 11966 PWs)   bands (ev):

   -14.0851 -13.9124 -13.8335 -13.8318 -13.8119 -13.8097 -13.7731 -13.7685
   -13.7586 -13.7552 -11.0783  -9.8237   0.1229   2.1985   2.5028   2.9466
     4.2212   4.5339   6.2636   6.3545

     occupation numbers 
     1.0000   1.0000   1.0000   1.0000   1.0000   1.0000   1.0000   1.0000
     1.0000   1.0000   1.0000   1.0000   1.0000   1.0000   1.0000   1.0000
     1.0000   1.0000   1.0000   1.0000

          k = 0.0000 0.4000 0.0000 ( 11966 PWs)   bands (ev):

   -14.0553 -13.9629 -13.8296 -13.8293 -13.8120 -13.8052 -13.7782 -13.7645
   -13.7641 -13.7517 -10.7715 -10.1054   0.7332   1.3120   3.1002   3.2683
     3.9210   4.1217   5.1731   6.5122

     occupation numbers 
     1.0000   1.0000   1.0000   1.0000   1.0000   1.0000   1.0000   1.0000
     1.0000   1.0000   1.0000   1.0000   1.0000   1.0000   1.0000   1.0000
     1.0000   1.0000   1.0000   1.0000

          k = 0.0000 0.4000 0.0741 ( 11950 PWs)   bands (ev):

   -14.0554 -13.9636 -13.8317 -13.8290 -13.8116 -13.8053 -13.7772 -13.7640
   -13.7634 -13.7516 -10.7704 -10.1048   0.7009   1.3320   3.0638   3.2711
     3.9001   4.1224   5.2624   6.5354

     occupation numbers 
     1.0000   1.0000   1.0000   1.0000   1.0000   1.0000   1.0000   1.0000
     1.0000   1.0000   1.0000   1.0000   1.0000   1.0000   1.0000   1.0000
     1.0000   1.0000   1.0000   1.0000

          k = 0.0000 0.4000 0.1483 ( 11946 PWs)   bands (ev):

   -14.0559 -13.9654 -13.8346 -13.8304 -13.8108 -13.8055 -13.7744 -13.7626
   -13.7619 -13.7516 -10.7675 -10.1032   0.6234   1.3792   2.9759   3.2782
     3.8473   4.1242   5.5000   6.5844

     occupation numbers 
     1.0000   1.0000   1.0000   1.0000   1.0000   1.0000   1.0000   1.0000
     1.0000   1.0000   1.0000   1.0000   1.0000   1.0000   1.0000   1.0000
     1.0000   1.0000   1.0000   1.0000

          k = 0.0000 0.4000 0.2224 ( 11947 PWs)   bands (ev):

   -14.0565 -13.9676 -13.8370 -13.8331 -13.8099 -13.8058 -13.7709 -13.7608
   -13.7603 -13.7517 -10.7639 -10.1012   0.5374   1.4316   2.8771   3.2871
     3.7867   4.1264   5.8167   6.6109

     occupation numbers 
     1.0000   1.0000   1.0000   1.0000   1.0000   1.0000   1.0000   1.0000
     1.0000   1.0000   1.0000   1.0000   1.0000   1.0000   1.0000   1.0000
     1.0000   1.0000   1.0000   1.0000

          k = 0.0000 0.4000 0.2966 ( 11950 PWs)   bands (ev):

   -14.0570 -13.9694 -13.8382 -13.8358 -13.8091 -13.8060 -13.7679 -13.7594
   -13.7592 -13.7519 -10.7610 -10.0996   0.4734   1.4720   2.8015   3.2943
     3.7418   4.1281   6.1363   6.5644

     occupation numbers 
     1.0000   1.0000   1.0000   1.0000   1.0000   1.0000   1.0000   1.0000
     1.0000   1.0000   1.0000   1.0000   1.0000   1.0000   1.0000   1.0000
     1.0000   1.0000   1.0000   1.0000

          k = 0.0000 0.4000-0.3707 ( 11942 PWs)   bands (ev):

   -14.0572 -13.9700 -13.8382 -13.8372 -13.8089 -13.8060 -13.7667 -13.7592
   -13.7585 -13.7521 -10.7599 -10.0989   0.4499   1.4873   2.7732   3.2971
     3.7256   4.1288   6.3543   6.4504

     occupation numbers 
     1.0000   1.0000   1.0000   1.0000   1.0000   1.0000   1.0000   1.0000
     1.0000   1.0000   1.0000   1.0000   1.0000   1.0000   1.0000   1.0000
     1.0000   1.0000   1.0000   1.0000

          k = 0.0000-0.5000 0.0000 ( 11914 PWs)   bands (ev):

   -14.0146 -14.0146 -13.8302 -13.8302 -13.8070 -13.8070 -13.7713 -13.7713
   -13.7557 -13.7557 -10.4309 -10.4309   0.9702   0.9702   3.5041   3.5041
     3.6851   3.6851   5.7657   5.7657

     occupation numbers 
     1.0000   1.0000   1.0000   1.0000   1.0000   1.0000   1.0000   1.0000
     1.0000   1.0000   1.0000   1.0000   1.0000   1.0000   1.0000   1.0000
     1.0000   1.0000   1.0000   1.0000

          k = 0.0000-0.5000 0.0741 ( 11958 PWs)   bands (ev):

   -14.0150 -14.0150 -13.8312 -13.8312 -13.8069 -13.8069 -13.7703 -13.7703
   -13.7554 -13.7554 -10.4300 -10.4300   0.9638   0.9638   3.4685   3.4685
     3.6868   3.6868   5.8338   5.8338

     occupation numbers 
     1.0000   1.0000   1.0000   1.0000   1.0000   1.0000   1.0000   1.0000
     1.0000   1.0000   1.0000   1.0000   1.0000   1.0000   1.0000   1.0000
     1.0000   1.0000   1.0000   1.0000

          k = 0.0000-0.5000 0.1483 ( 11940 PWs)   bands (ev):

   -14.0162 -14.0162 -13.8337 -13.8337 -13.8067 -13.8067 -13.7678 -13.7678
   -13.7546 -13.7546 -10.4277 -10.4277   0.9466   0.9466   3.3841   3.3841
     3.6911   3.6911   6.0055   6.0055

     occupation numbers 
     1.0000   1.0000   1.0000   1.0000   1.0000   1.0000   1.0000   1.0000
     1.0000   1.0000   1.0000   1.0000   1.0000   1.0000   1.0000   1.0000
     1.0000   1.0000   1.0000   1.0000

          k = 0.0000-0.5000 0.2224 ( 11960 PWs)   bands (ev):

   -14.0177 -14.0177 -13.8366 -13.8366 -13.8065 -13.8065 -13.7649 -13.7649
   -13.7535 -13.7535 -10.4248 -10.4248   0.9250   0.9250   3.2934   3.2934
     3.6965   3.6965   6.2082   6.2082

     occupation numbers 
     1.0000   1.0000   1.0000   1.0000   1.0000   1.0000   1.0000   1.0000
     1.0000   1.0000   1.0000   1.0000   1.0000   1.0000   1.0000   1.0000
     1.0000   1.0000   1.0000   1.0000

          k = 0.0000-0.5000 0.2966 ( 11936 PWs)   bands (ev):

   -14.0188 -14.0188 -13.8388 -13.8388 -13.8063 -13.8063 -13.7628 -13.7628
   -13.7527 -13.7527 -10.4225 -10.4225   0.9072   0.9072   3.2287   3.2287
     3.7009   3.7009   6.3677   6.3677

     occupation numbers 
     1.0000   1.0000   1.0000   1.0000   1.0000   1.0000   1.0000   1.0000
     1.0000   1.0000   1.0000   1.0000   1.0000   1.0000   1.0000   1.0000
     1.0000   1.0000   1.0000   1.0000

          k = 0.0000-0.5000-0.3707 ( 11944 PWs)   bands (ev):

   -14.0193 -14.0193 -13.8396 -13.8396 -13.8062 -13.8062 -13.7620 -13.7620
   -13.7524 -13.7524 -10.4216 -10.4216   0.9003   0.9003   3.2057   3.2057
     3.7026   3.7026   6.4280   6.4280

     occupation numbers 
     1.0000   1.0000   1.0000   1.0000   1.0000   1.0000   1.0000   1.0000
     1.0000   1.0000   1.0000   1.0000   1.0000   1.0000   1.0000   1.0000
     1.0000   1.0000   1.0000   1.0000

          k = 0.1000 0.1000 0.0000 ( 11936 PWs)   bands (ev):

   -14.1178 -13.8385 -13.8296 -13.8249 -13.8239 -13.7949 -13.7907 -13.7860
   -13.7514 -13.7477 -11.4714  -9.5322   0.6344   1.9444   2.3394   2.6519
     4.6898   4.7923   5.3031   7.8136

     occupation numbers 
     1.0000   1.0000   1.0000   1.0000   1.0000   1.0000   1.0000   1.0000
     1.0000   1.0000   1.0000   1.0000   1.0000   1.0000   1.0000   1.0000
     1.0000   1.0000   1.0000   1.0000

          k = 0.1000 0.1000 0.0741 ( 11935 PWs)   bands (ev):

   -14.1174 -13.8391 -13.8284 -13.8265 -13.8219 -13.7957 -13.7902 -13.7857
   -13.7520 -13.7489 -11.4701  -9.5321   0.5025   2.0595   2.4123   2.6574
     4.6831   4.8156   5.3029   7.7183

     occupation numbers 
     1.0000   1.0000   1.0000   1.0000   1.0000   1.0000   1.0000   1.0000
     1.0000   1.0000   1.0000   1.0000   1.0000   1.0000   1.0000   1.0000
     1.0000   1.0000   1.0000   1.0000

          k = 0.1000 0.1000 0.1483 ( 11940 PWs)   bands (ev):

   -14.1164 -13.8404 -13.8275 -13.8252 -13.8199 -13.7971 -13.7886 -13.7854
   -13.7535 -13.7521 -11.4667  -9.5319   0.2448   2.1817   2.6718   2.6976
     4.6653   4.8973   5.3025   7.4384

     occupation numbers 
     1.0000   1.0000   1.0000   1.0000   1.0000   1.0000   1.0000   1.0000
     1.0000   1.0000   1.0000   1.0000   1.0000   1.0000   1.0000   1.0000
     1.0000   1.0000   1.0000   1.0000

          k = 0.1000 0.1000 0.2224 ( 11940 PWs)   bands (ev):

   -14.1150 -13.8418 -13.8275 -13.8211 -13.8191 -13.7980 -13.7867 -13.7849
   -13.7564 -13.7558 -11.4625  -9.5317   0.0090   2.2334   2.6900   3.0684
     4.6431   5.0735   5.3019   7.0070

     occupation numbers 
     1.0000   1.0000   1.0000   1.0000   1.0000   1.0000   1.0000   1.0000
     1.0000   1.0000   1.0000   1.0000   1.0000   1.0000   1.0000   1.0000
     1.0000   1.0000   1.0000   1.0000

          k = 0.1000 0.1000 0.2966 ( 11924 PWs)   bands (ev):

   -14.1140 -13.8430 -13.8267 -13.8198 -13.8173 -13.7980 -13.7863 -13.7832
   -13.7603 -13.7580 -11.4591  -9.5316  -0.1468   2.2608   2.7050   3.3404
     4.6251   5.3015   5.3800   6.4983

     occupation numbers 
     1.0000   1.0000   1.0000   1.0000   1.0000   1.0000   1.0000   1.0000
     1.0000   1.0000   1.0000   1.0000   1.0000   1.0000   1.0000   1.0000
     1.0000   1.0000   1.0000   1.0000

          k = 0.1000 0.1000-0.3707 ( 11914 PWs)   bands (ev):

   -14.1135 -13.8434 -13.8260 -13.8206 -13.8157 -13.7979 -13.7865 -13.7823
   -13.7619 -13.7589 -11.4578  -9.5315  -0.2008   2.2702   2.7108   3.4353
     4.6181   5.3013   5.6692   6.1360

     occupation numbers 
     1.0000   1.0000   1.0000   1.0000   1.0000   1.0000   1.0000   1.0000
     1.0000   1.0000   1.0000   1.0000   1.0000   1.0000   1.0000   1.0000
     1.0000   1.0000   1.0000   1.0000

          k = 0.1000 0.2000 0.0000 ( 11936 PWs)   bands (ev):

   -14.1046 -13.8558 -13.8299 -13.8289 -13.8209 -13.8136 -13.7859 -13.7825
   -13.7518 -13.7485 -11.3021  -9.6482   0.5595   1.8192   2.3865   2.9369
     4.4462   4.5538   5.2808   7.6650

     occupation numbers 
     1.0000   1.0000   1.0000   1.0000   1.0000   1.0000   1.0000   1.0000
     1.0000   1.0000   1.0000   1.0000   1.0000   1.0000   1.0000   1.0000
     1.0000   1.0000   1.0000   1.0000

          k = 0.1000 0.2000 0.0741 ( 11934 PWs)   bands (ev):

   -14.1043 -13.8567 -13.8307 -13.8276 -13.8209 -13.8131 -13.7851 -13.7825
   -13.7521 -13.7494 -11.3008  -9.6480   0.4706   1.8820   2.4246   2.9427
     4.4446   4.6040   5.2838   7.5913

     occupation numbers 
     1.0000   1.0000   1.0000   1.0000   1.0000   1.0000   1.0000   1.0000
     1.0000   1.0000   1.0000   1.0000   1.0000   1.0000   1.0000   1.0000
     1.0000   1.0000   1.0000   1.0000

          k = 0.1000 0.2000 0.1483 ( 11935 PWs)   bands (ev):

   -14.1035 -13.8588 -13.8318 -13.8256 -13.8208 -13.8120 -13.7831 -13.7820
   -13.7532 -13.7521 -11.2974  -9.6476   0.2790   1.9984   2.5239   2.9575
     4.4261   4.7743   5.2974   7.3754

     occupation numbers 
     1.0000   1.0000   1.0000   1.0000   1.0000   1.0000   1.0000   1.0000
     1.0000   1.0000   1.0000   1.0000   1.0000   1.0000   1.0000   1.0000
     1.0000   1.0000   1.0000   1.0000

          k = 0.1000 0.2000 0.2224 ( 11935 PWs)   bands (ev):

   -14.1025 -13.8613 -13.8324 -13.8252 -13.8189 -13.8110 -13.7820 -13.7794
   -13.7558 -13.7548 -11.2931  -9.6470   0.0898   2.0938   2.6336   2.9743
     4.3975   5.0330   5.3601   7.0352

     occupation numbers 
     1.0000   1.0000   1.0000   1.0000   1.0000   1.0000   1.0000   1.0000
     1.0000   1.0000   1.0000   1.0000   1.0000   1.0000   1.0000   1.0000
     1.0000   1.0000   1.0000   1.0000

          k = 0.1000 0.2000 0.2966 ( 11920 PWs)   bands (ev):

   -14.1017 -13.8631 -13.8327 -13.8259 -13.8163 -13.8106 -13.7813 -13.7764
   -13.7591 -13.7565 -11.2897  -9.6465  -0.0403   2.1541   2.7071   2.9856
     4.3734   5.1790   5.6433   6.6025

     occupation numbers 
     1.0000   1.0000   1.0000   1.0000   1.0000   1.0000   1.0000   1.0000
     1.0000   1.0000   1.0000   1.0000   1.0000   1.0000   1.0000   1.0000
     1.0000   1.0000   1.0000   1.0000

          k = 0.1000 0.2000-0.3707 ( 11916 PWs)   bands (ev):

   -14.1014 -13.8638 -13.8328 -13.8263 -13.8151 -13.8105 -13.7810 -13.7751
   -13.7606 -13.7573 -11.2884  -9.6463  -0.0860   2.1752   2.7317   2.9891
     4.3641   5.2015   6.0351   6.1892

     occupation numbers 
     1.0000   1.0000   1.0000   1.0000   1.0000   1.0000   1.0000   1.0000
     1.0000   1.0000   1.0000   1.0000   1.0000   1.0000   1.0000   1.0000
     1.0000   1.0000   1.0000   1.0000

          k = 0.1000 0.3000 0.0000 ( 11953 PWs)   bands (ev):

   -14.0839 -13.9113 -13.8291 -13.8281 -13.8180 -13.8116 -13.7806 -13.7737
   -13.7532 -13.7505 -11.0477  -9.8415   0.5191   1.5319   2.5852   3.2821
     4.1441   4.4859   5.1441   7.2224

     occupation numbers 
     1.0000   1.0000   1.0000   1.0000   1.0000   1.0000   1.0000   1.0000
     1.0000   1.0000   1.0000   1.0000   1.0000   1.0000   1.0000   1.0000
     1.0000   1.0000   1.0000   1.0000

          k = 0.1000 0.3000 0.0741 ( 11942 PWs)   bands (ev):

   -14.0838 -13.9119 -13.8309 -13.8266 -13.8180 -13.8112 -13.7798 -13.7734
   -13.7535 -13.7509 -11.0464  -9.8411   0.4691   1.5719   2.5629   3.2846
     4.1279   4.5615   5.1663   7.1872

     occupation numbers 
     1.0000   1.0000   1.0000   1.0000   1.0000   1.0000   1.0000   1.0000
     1.0000   1.0000   1.0000   1.0000   1.0000   1.0000   1.0000   1.0000
     1.0000   1.0000   1.0000   1.0000

          k = 0.1000 0.3000 0.1483 ( 11942 PWs)   bands (ev):

   -14.0835 -13.9137 -13.8327 -13.8264 -13.8172 -13.8106 -13.7780 -13.7724
   -13.7544 -13.7518 -11.0431  -9.8400   0.3518   1.6708   2.5010   3.2928
     4.0863   4.7318   5.2638   7.0796

     occupation numbers 
     1.0000   1.0000   1.0000   1.0000   1.0000   1.0000   1.0000   1.0000
     1.0000   1.0000   1.0000   1.0000   1.0000   1.0000   1.0000   1.0000
     1.0000   1.0000   1.0000   1.0000

          k = 0.1000 0.3000 0.2224 ( 11933 PWs)   bands (ev):

   -14.0830 -13.9158 -13.8337 -13.8281 -13.8151 -13.8102 -13.7760 -13.7702
   -13.7563 -13.7528 -11.0389  -9.8388   0.2256   1.7956   2.4106   3.3052
     4.0357   4.8623   5.5121   6.8940

     occupation numbers 
     1.0000   1.0000   1.0000   1.0000   1.0000   1.0000   1.0000   1.0000
     1.0000   1.0000   1.0000   1.0000   1.0000   1.0000   1.0000   1.0000
     1.0000   1.0000   1.0000   1.0000

          k = 0.1000 0.3000 0.2966 ( 11940 PWs)   bands (ev):

   -14.0827 -13.9174 -13.8336 -13.8304 -13.8132 -13.8102 -13.7743 -13.7676
   -13.7584 -13.7539 -11.0356  -9.8377   0.1340   1.9200   2.3085   3.3167
     3.9953   4.9140   5.8842   6.6254

     occupation numbers 
     1.0000   1.0000   1.0000   1.0000   1.0000   1.0000   1.0000   1.0000
     1.0000   1.0000   1.0000   1.0000   1.0000   1.0000   1.0000   1.0000
     1.0000   1.0000   1.0000   1.0000

          k = 0.1000 0.3000-0.3707 ( 11930 PWs)   bands (ev):

   -14.0825 -13.9181 -13.8326 -13.8322 -13.8125 -13.8102 -13.7735 -13.7663
   -13.7595 -13.7545 -11.0343  -9.8373   0.1009   1.9876   2.2485   3.3214
     3.9800   4.9265   6.2603   6.2960

     occupation numbers 
     1.0000   1.0000   1.0000   1.0000   1.0000   1.0000   1.0000   1.0000
     1.0000   1.0000   1.0000   1.0000   1.0000   1.0000   1.0000   1.0000
     1.0000   1.0000   1.0000   1.0000

          k = 0.1000 0.4000 0.0000 ( 11967 PWs)   bands (ev):

   -14.0556 -13.9686 -13.8296 -13.8295 -13.8138 -13.8084 -13.7737 -13.7631
   -13.7588 -13.7512 -10.7396 -10.1033   0.5905   1.1509   2.9066   3.6728
     3.7402   4.4099   5.2520   6.5282

     occupation numbers 
     1.0000   1.0000   1.0000   1.0000   1.0000   1.0000   1.0000   1.0000
     1.0000   1.0000   1.0000   1.0000   1.0000   1.0000   1.0000   1.0000
     1.0000   1.0000   1.0000   1.0000

          k = 0.1000 0.4000 0.0741 ( 11961 PWs)   bands (ev):

   -14.0557 -13.9691 -13.8316 -13.8289 -13.8134 -13.8080 -13.7731 -13.7633
   -13.7583 -13.7511 -10.7385 -10.1026   0.5675   1.1679   2.8620   3.6555
     3.7316   4.4380   5.3232   6.5438

     occupation numbers 
     1.0000   1.0000   1.0000   1.0000   1.0000   1.0000   1.0000   1.0000
     1.0000   1.0000   1.0000   1.0000   1.0000   1.0000   1.0000   1.0000
     1.0000   1.0000   1.0000   1.0000

          k = 0.1000 0.4000 0.1483 ( 11952 PWs)   bands (ev):

   -14.0558 -13.9703 -13.8340 -13.8302 -13.8122 -13.8073 -13.7716 -13.7630
   -13.7575 -13.7510 -10.7355 -10.1009   0.5110   1.2105   2.7564   3.6085
     3.7167   4.4897   5.5266   6.5735

     occupation numbers 
     1.0000   1.0000   1.0000   1.0000   1.0000   1.0000   1.0000   1.0000
     1.0000   1.0000   1.0000   1.0000   1.0000   1.0000   1.0000   1.0000
     1.0000   1.0000   1.0000   1.0000

          k = 0.1000 0.4000 0.2224 ( 11937 PWs)   bands (ev):

   -14.0560 -13.9718 -13.8360 -13.8325 -13.8107 -13.8068 -13.7696 -13.7618
   -13.7572 -13.7511 -10.7318 -10.0988   0.4460   1.2614   2.6406   3.5479
     3.7093   4.5277   5.8145   6.5775

     occupation numbers 
     1.0000   1.0000   1.0000   1.0000   1.0000   1.0000   1.0000   1.0000
     1.0000   1.0000   1.0000   1.0000   1.0000   1.0000   1.0000   1.0000
     1.0000   1.0000   1.0000   1.0000

          k = 0.1000 0.4000 0.2966 ( 11945 PWs)   bands (ev):

   -14.0562 -13.9730 -13.8369 -13.8348 -13.8096 -13.8066 -13.7678 -13.7604
   -13.7574 -13.7514 -10.7288 -10.0971   0.3963   1.3029   2.5542   3.4997
     3.7076   4.5474   6.1126   6.5159

     occupation numbers 
     1.0000   1.0000   1.0000   1.0000   1.0000   1.0000   1.0000   1.0000
     1.0000   1.0000   1.0000   1.0000   1.0000   1.0000   1.0000   1.0000
     1.0000   1.0000   1.0000   1.0000

          k = 0.1000 0.4000-0.3707 ( 11944 PWs)   bands (ev):

   -14.0562 -13.9735 -13.8370 -13.8360 -13.8091 -13.8065 -13.7670 -13.7599
   -13.7575 -13.7516 -10.7277 -10.0964   0.3778   1.3190   2.5222   3.4818
     3.7076   4.5533   6.3310   6.3880

     occupation numbers 
     1.0000   1.0000   1.0000   1.0000   1.0000   1.0000   1.0000   1.0000
     1.0000   1.0000   1.0000   1.0000   1.0000   1.0000   1.0000   1.0000
     1.0000   1.0000   1.0000   1.0000

          k = 0.1000-0.5000 0.0000 ( 11936 PWs)   bands (ev):

   -14.0176 -14.0176 -13.8301 -13.8301 -13.8097 -13.8097 -13.7660 -13.7660
   -13.7549 -13.7549 -10.4130 -10.4130   0.8085   0.8085   3.3082   3.3082
     4.0764   4.0764   5.8000   5.8000

     occupation numbers 
     1.0000   1.0000   1.0000   1.0000   1.0000   1.0000   1.0000   1.0000
     1.0000   1.0000   1.0000   1.0000   1.0000   1.0000   1.0000   1.0000
     1.0000   1.0000   1.0000   1.0000

          k = 0.1000-0.5000 0.0741 ( 11960 PWs)   bands (ev):

   -14.0179 -14.0179 -13.8310 -13.8310 -13.8092 -13.8092 -13.7658 -13.7658
   -13.7544 -13.7544 -10.4121 -10.4121   0.8058   0.8058   3.2665   3.2665
     4.0848   4.0848   5.8601   5.8601

     occupation numbers 
     1.0000   1.0000   1.0000   1.0000   1.0000   1.0000   1.0000   1.0000
     1.0000   1.0000   1.0000   1.0000   1.0000   1.0000   1.0000   1.0000
     1.0000   1.0000   1.0000   1.0000

          k = 0.1000-0.5000 0.1483 ( 11952 PWs)   bands (ev):

   -14.0186 -14.0186 -13.8332 -13.8332 -13.8082 -13.8082 -13.7652 -13.7652
   -13.7535 -13.7535 -10.4097 -10.4097   0.7985   0.7985   3.1682   3.1682
     4.1019   4.1019   6.0120   6.0120

     occupation numbers 
     1.0000   1.0000   1.0000   1.0000   1.0000   1.0000   1.0000   1.0000
     1.0000   1.0000   1.0000   1.0000   1.0000   1.0000   1.0000   1.0000
     1.0000   1.0000   1.0000   1.0000

          k = 0.1000-0.5000 0.2224 ( 11930 PWs)   bands (ev):

   -14.0194 -14.0194 -13.8356 -13.8356 -13.8073 -13.8073 -13.7640 -13.7640
   -13.7526 -13.7526 -10.4067 -10.4067   0.7890   0.7890   3.0631   3.0631
     4.1172   4.1172   6.1909   6.1909

     occupation numbers 
     1.0000   1.0000   1.0000   1.0000   1.0000   1.0000   1.0000   1.0000
     1.0000   1.0000   1.0000   1.0000   1.0000   1.0000   1.0000   1.0000
     1.0000   1.0000   1.0000   1.0000

          k = 0.1000-0.5000 0.2966 ( 11948 PWs)   bands (ev):

   -14.0201 -14.0201 -13.8375 -13.8375 -13.8067 -13.8067 -13.7629 -13.7629
   -13.7520 -13.7520 -10.4043 -10.4043   0.7809   0.7809   2.9878   2.9878
     4.1269   4.1269   6.3301   6.3301

     occupation numbers 
     1.0000   1.0000   1.0000   1.0000   1.0000   1.0000   1.0000   1.0000
     1.0000   1.0000   1.0000   1.0000   1.0000   1.0000   1.0000   1.0000
     1.0000   1.0000   1.0000   1.0000

          k = 0.1000-0.5000-0.3707 ( 11928 PWs)   bands (ev):

   -14.0204 -14.0204 -13.8382 -13.8382 -13.8065 -13.8065 -13.7624 -13.7624
   -13.7519 -13.7519 -10.4033 -10.4033   0.7777   0.7777   2.9609   2.9609
     4.1301   4.1301   6.3821   6.3821

     occupation numbers 
     1.0000   1.0000   1.0000   1.0000   1.0000   1.0000   1.0000   1.0000
     1.0000   1.0000   1.0000   1.0000   1.0000   1.0000   1.0000   1.0000
     1.0000   1.0000   1.0000   1.0000

          k = 0.2000 0.2000 0.0000 ( 11970 PWs)   bands (ev):

   -14.0945 -13.8870 -13.8304 -13.8272 -13.8197 -13.8195 -13.7814 -13.7765
   -13.7513 -13.7450 -11.1510  -9.7362   0.4001   1.5718   2.3908   3.3589
     4.2581   4.4126   5.4670   7.5328

     occupation numbers 
     1.0000   1.0000   1.0000   1.0000   1.0000   1.0000   1.0000   1.0000
     1.0000   1.0000   1.0000   1.0000   1.0000   1.0000   1.0000   1.0000
     1.0000   1.0000   1.0000   1.0000

          k = 0.2000 0.2000 0.0741 ( 11947 PWs)   bands (ev):

   -14.0942 -13.8875 -13.8302 -13.8266 -13.8218 -13.8177 -13.7804 -13.7765
   -13.7515 -13.7463 -11.1496  -9.7359   0.3475   1.6090   2.3785   3.3646
     4.2456   4.5113   5.4672   7.4611

     occupation numbers 
     1.0000   1.0000   1.0000   1.0000   1.0000   1.0000   1.0000   1.0000
     1.0000   1.0000   1.0000   1.0000   1.0000   1.0000   1.0000   1.0000
     1.0000   1.0000   1.0000   1.0000

          k = 0.2000 0.2000 0.1483 ( 11937 PWs)   bands (ev):

   -14.0934 -13.8888 -13.8302 -13.8243 -13.8239 -13.8160 -13.7783 -13.7763
   -13.7523 -13.7497 -11.1461  -9.7351   0.2234   1.7009   2.3414   3.3800
     4.2124   4.7861   5.4676   7.2592

     occupation numbers 
     1.0000   1.0000   1.0000   1.0000   1.0000   1.0000   1.0000   1.0000
     1.0000   1.0000   1.0000   1.0000   1.0000   1.0000   1.0000   1.0000
     1.0000   1.0000   1.0000   1.0000

          k = 0.2000 0.2000 0.2224 ( 11931 PWs)   bands (ev):

   -14.0924 -13.8903 -13.8307 -13.8257 -13.8207 -13.8148 -13.7777 -13.7738
   -13.7543 -13.7537 -11.1418  -9.7341   0.0894   1.8170   2.2802   3.4006
     4.1704   5.1853   5.4682   6.9560

     occupation numbers 
     1.0000   1.0000   1.0000   1.0000   1.0000   1.0000   1.0000   1.0000
     1.0000   1.0000   1.0000   1.0000   1.0000   1.0000   1.0000   1.0000
     1.0000   1.0000   1.0000   1.0000

          k = 0.2000 0.2000 0.2966 ( 11926 PWs)   bands (ev):

   -14.0916 -13.8916 -13.8311 -13.8268 -13.8173 -13.8141 -13.7778 -13.7706
   -13.7585 -13.7553 -11.1382  -9.7333  -0.0080   1.9352   2.1998   3.4187
     4.1353   5.4686   5.6464   6.5781

     occupation numbers 
     1.0000   1.0000   1.0000   1.0000   1.0000   1.0000   1.0000   1.0000
     1.0000   1.0000   1.0000   1.0000   1.0000   1.0000   1.0000   1.0000
     1.0000   1.0000   1.0000   1.0000

          k = 0.2000 0.2000-0.3707 ( 11918 PWs)   bands (ev):

[...]
              0.127306640104979E+02
              0.204981162993610E+01
             -0.195937534043251E+01
              0.368780926436457E+00
             -0.149554553001424E+01
              0.103899041987230E+02
             -0.426523032486596E+00
              0.216858581747763E+01
              0.734984322578237E+01
              0.169767554148495E+01
             -0.572259233851507E+01
             -0.867224169105700E+01
              0.137035412955527E+00
             -0.981445903584866E+01
              0.330449168733658E+01
             -0.185914898985529E+01
             -0.440120912696298E+01
              0.404829004358832E+01
              0.146551189286177E+01
              0.371999123317667E+01
              0.245216543785645E+00
              0.583961118627565E+01
             -0.956781988545767E+01
             -0.836392303252083E+00
             -0.841442446617103E+01
              0.158987720192351E+01
              0.460803393960528E+01
             -0.829353711238205E+00
             -0.317478857275837E+01
              0.677975436362931E+01
             -0.306578498770291E+01
              0.223146449294592E+01
             -0.190799203917685E+01
              0.502867714691576E+01
              0.573466893892306E+01
             -0.253694299234174E+01
              0.486651793969457E+01
              0.189707141422899E+01
             -0.506544505364085E+01
             -0.315922418724477E+01
              0.817467708633103E+01
              0.398135819953035E+01
             -0.333066152598342E+00
             -0.111373929938486E+01
              0.122635262745717E+02
              0.729942295496672E+01
              0.264904841708180E+01
             -0.782237849778465E+01
              0.122858104397608E+02
             -0.563989703482346E+01
             -0.690160875871746E+01
             -0.107056205853508E+02
              0.497444751490688E+01
             -0.971972565080483E+01
              0.424930647183177E+01
              0.701475543950279E+01
              0.500508610841996E+01
              0.115514324408877E+01
              0.319237829361440E+01
             -0.773866487266149E+01
             -0.272494370424128E+01
             -0.248474636645978E+01
              0.387819623845236E+01
              0.826919341766127E+01
              0.824447539224835E+01
              0.640270449033833E+01
             -0.152157467084488E+01
              0.219036478153498E+01
              0.207386334411524E+00
             -0.254245482104982E+01
              0.361862913675273E+01
              0.365868621360278E+01
             -0.490088715788106E+01
             -0.521387334665345E+01
             -0.232635803525439E+01
              0.549459746119211E+01
              0.273742900966084E+01
             -0.366959955284704E+01
             -0.631575731721176E+01
             -0.885685175843124E+01
              0.159136276894957E+00
              0.238556069623355E+01
             -0.331288098344536E+01
              0.124231611680787E+02
              0.267300809571296E+00
             -0.143668039057016E+02
              0.342444736762599E+01
              0.607999689355682E+01
             -0.237296646747493E+01
              0.255392773802949E+00
             -0.351464523144213E+01
              0.563329743862641E+01
              0.265437163552915E+01
             -0.730179169177747E+01
              0.865035677279740E+01
              0.561577945608846E+00
             -0.362581213415485E+01
             -0.426608694057803E+01
              0.174404057950616E+02
              0.789612495767687E+01
             -0.200121008459523E+01
              0.419201218994883E+01
             -0.822084387813345E+01
             -0.171542325575147E+01
             -0.754865293056795E+01
              0.296053906393916E+01
              0.535272539527892E+01
              0.612688853734618E+01
             -0.255945595913710E+01
              0.621453545092990E+00
              0.736265819597886E+01
              0.248012978604431E+01
              0.445533456926614E+01
              0.185885931692257E+01
             -0.108382805251485E+01
              0.245642689327958E-01
             -0.132374507954073E+01
              0.157584322843405E+01
              0.488460763461944E+00
             -0.667850677644316E+01
              0.101651754813757E+02
              0.399905256058260E+01
             -0.730723650310424E+01
             -0.535962971064091E+01
             -0.764722731123722E+01
             -0.334737623365304E+01
             -0.249766203242215E+01
             -0.595407446258839E+01
             -0.584273884732730E+01
              0.719131336304407E+01
              0.570685460415096E+01
             -0.829791456177020E+00
              0.841320960819321E+01
              0.125246333700608E+01
             -0.136144561884444E+02
              0.746585721523194E+01
              0.140870723229027E+01
              0.582378451613655E+01
              0.103477290821965E+01
              0.873033112459954E+00
              0.115102747757152E+01
              0.312518886335057E+01
             -0.563604222877769E+01
             -0.274265165733606E+01
             -0.540559768114899E+01
             -0.436770120833965E+01
              0.192657100639479E+01
             -0.497215709092998E+01
              0.236143622150715E+01
              0.314956006435300E+01
             -0.310739770057863E+01
             -0.190726852100730E+01
              0.625512541313888E-01
              0.856700124123153E+01
              0.120223479268677E+01
              0.821248323464107E+01
              0.298363141612222E+01
             -0.107739991880806E+02
             -0.360556382275666E+01
              0.361505241802048E+01
              0.839097153770490E+01
              0.141464478338223E+01
              0.340614561885259E+01
              0.780080612789592E+01
             -0.451067487432406E+01
             -0.710202643384089E+01
              0.964826757041298E+01
              0.462479964266308E+00
             -0.101990113326499E+02
              0.361488662800491E+01
              0.655120482405447E+01
             -0.163019315386150E+01
             -0.654175933380721E+01
              0.123938109791922E+01
              0.380930071925746E+00
             -0.332549450375246E+01
              0.123522580322368E+01
             -0.109059749027459E+01
              0.150248969777965E+02
              0.435411382786386E+01
             -0.655013820779183E+01
              0.187956310343146E+01
              0.936847596282675E+01
             -0.625630002286941E+01
             -0.169842499750327E+01
             -0.578585799559503E+01
              0.468973255623111E+01
              0.155013426770048E+01
              0.313126048498768E+01
              0.489396363391766E+00
              0.106628500257873E+02
             -0.615926151294747E+01
             -0.468017858680439E+01
             -0.481459631800451E+01
              0.421350217921818E+01
              0.104877597059441E+02
             -0.161480819770680E+01
              0.423245198372727E+01
             -0.599863217188428E+01
              0.103985098102553E+01
             -0.185750848477008E+01
              0.180321601732736E+00
             -0.245775169347857E+01
             -0.203477394518432E+01
             -0.182552608390573E+01
              0.161157785153445E+01
              0.291764323304047E+01
             -0.685323221149838E+01
              0.502498755690709E+01
             -0.803202232222557E+01
              0.602214050050687E+01
             -0.659572818046256E+01
              0.104466896379066E+02
              0.575223516449105E+01
              0.655320585276308E+01
              0.159838267565431E+01
              0.177774130059176E+01
             -0.144292037770141E+02
              0.221216216689141E+01
              0.445111540013997E+00
              0.122210022201770E+01
             -0.223752687975422E+01
              0.111071217802001E+02
             -0.280285687550260E+01
             -0.457296670765129E+01
             -0.108039259366154E+02
             -0.373127361039199E+01
             -0.512153280489930E+01
             -0.450783296994588E+01
             -0.997194751022811E+00
             -0.237120147719607E+01
             -0.320451920436804E+01
             -0.476701760228931E+01
              0.361016224360898E+01
              0.115924216302084E+02
              0.975837143861142E+01
             -0.176371898683978E+01
             -0.118475663581421E+02
             -0.506587400390592E+01
              0.236322802540813E+01
              0.248655913467194E+01
              0.377817526997472E+01
              0.277372090318386E+01
              0.645878796326166E+00
              0.112772214924331E+02
             -0.275131789997240E+01
              0.561263185621929E+01
              0.290907579732906E+01
             -0.382904474729540E+01
             -0.200615663421908E+01
              0.514552436034303E+01
             -0.288388008257676E+01
             -0.187855766024194E+01
             -0.136337598641451E+01
              0.659284222648517E+01
             -0.877519076323264E+01
             -0.930736055492623E+00
             -0.685199092482227E+01
             -0.146054100505740E+02
             -0.644253624355358E-01
             -0.207695813807427E+01
              0.552554634826150E+01
              0.617126640020896E+01
              0.845659973280181E+01
             -0.552241015875022E+01
              0.878792784864358E+01
              0.226871869781360E+01
             -0.305152812648598E+01
              0.134547919415717E+01
             -0.265250342869542E+01
             -0.164357857545281E+01
              0.489678594833286E+01
             -0.428419701550672E+01
              0.110593702188614E+02
             -0.285933842323529E+01
             -0.609327561447415E+01
              0.115324153094732E+02
             -0.622522458221755E+01
             -0.620392433450874E+00
              0.726042861653582E+00
              0.332662760685405E+01
             -0.495199941467978E+01
             -0.374873940243172E+01
              0.588585114181961E+01
             -0.916499800202768E+01
              0.721483797288988E+01
              0.105284353883123E+01
              0.538698023582497E+01
              0.758277861921990E+01
              0.198633803754507E+01
             -0.104402884780106E+02
             -0.455738617457822E+01
             -0.761269067325083E+01
             -0.464052496624072E+01
             -0.133188779477903E+01
              0.170364906663347E+01
             -0.347655503442655E+01
              0.877325990897333E-01
             -0.107443161860275E+02
              0.479133615715529E+00
             -0.690475143116851E+01
              0.671624338970581E+01
             -0.375761698286002E+01
             -0.872207194528982E+00
              0.504096854972527E+01
              0.923762729882375E+00
              0.479286247247097E+01
             -0.886895111503306E+01
              0.154637561324652E+01
              0.622933799956776E+00
              0.375113762234369E+01
              0.627782776338849E+01
             -0.113314604027111E+01
             -0.693300439134484E+01
             -0.412509568189265E+01
             -0.280173701473145E+01
             -0.997716859734680E+00
              0.653941460684364E+01
              0.421406417433718E+01
             -0.423511804112508E+01
             -0.399262813199648E+01
              0.306410005328111E+01
              0.316595801721606E+01
             -0.870024351262060E+01
              0.215265229676663E+01
              0.620426059103789E+01
             -0.288010690634630E+00
              0.783126665255704E+01
              0.366878659887653E+01
              0.605958858284421E+01
              0.933280701102925E+01
              0.136353762196987E+01
             -0.127536171027812E+02
              0.159631585659530E+01
              0.139227163414872E+02
              0.101136252043590E+02
             -0.684424860613134E+01
              0.619061934524381E+00
              0.896684696253729E+01
              0.777611179876167E+01
              0.354213553848032E+01
             -0.212756773029572E+01
              0.354860094904500E+01
              0.727903840662659E+01
             -0.343198374200428E+01
             -0.226058671836362E+01
              0.480400095794353E+01
             -0.306192670048411E+00
              0.449023486085493E+01
             -0.119858674663863E+01
              0.918141912643347E+01
             -0.338565945812211E+01
              0.209103929511906E+01
             -0.396229978610519E+01
              0.447029070835150E+01
             -0.564013740941448E+00
              0.678158918127734E+01
              0.469865355595825E+00
              0.291325447002440E+01
             -0.445807786859320E+01
             -0.297421193002993E+01
             -0.149237659005756E+01
             -0.129096886860928E+01
              0.740576284930958E+01
              0.349798393104942E+01
              0.903637019883168E+01
              0.802527608816660E+01
              0.212143942712231E+01
              0.201863672565708E+00
              0.883242495871539E+01
              0.486973479480865E+01
              0.144866780539843E+00
              0.837084959416629E+01
             -0.708686807409474E+01
              0.238650195542687E+01
             -0.460686138863984E+01
             -0.141537901089790E+01
              0.116812785247424E+02
             -0.164895185223156E+01
             -0.417679222565795E+00
             -0.136664984675522E+01
              0.966503594032949E+01
             -0.207837088849065E+01
             -0.212485764174250E+00
              0.194030869503570E+02
             -0.583765778944143E+01
             -0.703303213939550E+01
             -0.711702365799449E+01
             -0.442276506792550E+01
              0.428032858560761E+01
             -0.184401711857392E+01
              0.105483451784788E+01
             -0.389708552102235E+00
              0.248252419420053E+01
              0.395374552485125E+01
              0.457931566936805E+01
              0.673819628021420E+01
              0.404284557956915E+01
              0.453858881109781E+01
             -0.795501879274400E+01
             -0.797069132679175E+01
             -0.182972444276054E+01
             -0.736152001644827E+01
              0.117332512634304E+02
              0.989056216603755E+01
              0.475016681341087E+01
              0.128753130950630E+02
             -0.647661107902951E+01
             -0.280436893257956E+01
             -0.396413792379764E+01
              0.109636816427299E+02
 
 BEEF-vdW xc energy contributions
            1 :    -100.0834829589315     
            2 :     91.17484571576537     
            3 :    -76.07779530955902     
            4 :     59.01462191723782     
            5 :    -43.92198354714527     
            6 :     33.00648084839811     
            7 :    -26.29875781090773     
            8 :     22.26857458040946     
            9 :    -19.00708049210328     
           10 :     15.27366007403168     
           11 :    -10.91087007055850     
           12 :     6.568975067343828     
           13 :    -3.064745743363176     
           14 :    0.8231457235813053     
           15 :    0.3026401218930488     
           16 :   -0.8238795110245434     
           17 :     1.240773841421600     
           18 :    -1.767332404431400     
           19 :     2.303515675895525     
           20 :    -2.615827943487105     
           21 :     2.563720298746105     
           22 :    -2.212602551709750     
           23 :     1.779460076829963     
           24 :    -1.478159271141934     
           25 :     1.386789060813427     
           26 :    -1.423833667881567     
           27 :     1.432745935192955     
           28 :    -1.302342128766966     
           29 :     1.038536459423369     
           30 :   -0.7485494353757502     
           31 :    -8.852036107386041     
           32 :    -6.281507604396097     

     Writing all to output data dir ./BaSnO3.save/
 
     init_run     :      0.77s CPU      0.82s WALL (       1 calls)
     electrons    :     10.97s CPU     11.40s WALL (       1 calls)
     forces       :      0.17s CPU      0.18s WALL (       1 calls)
     stress       :      0.31s CPU      0.33s WALL (       1 calls)

     Called by init_run:
     wfcinit      :      0.35s CPU      0.36s WALL (       1 calls)
     wfcinit:atom :      0.00s CPU      0.00s WALL (      32 calls)
     wfcinit:wfcr :      0.33s CPU      0.33s WALL (      32 calls)
     potinit      :      0.34s CPU      0.37s WALL (       1 calls)
     hinit0       :      0.05s CPU      0.05s WALL (       1 calls)

     Called by electrons:
     c_bands      :      9.01s CPU      9.23s WALL (      10 calls)
     sum_band     :      1.36s CPU      1.41s WALL (      10 calls)
     v_of_rho     :      0.71s CPU      0.80s WALL (      11 calls)
     v_h          :      0.01s CPU      0.01s WALL (      11 calls)
     v_xc         :      2.05s CPU      2.40s WALL (      47 calls)
     newd         :      0.04s CPU      0.05s WALL (      11 calls)
     PAW_pot      :      0.13s CPU      0.14s WALL (      11 calls)
     mix_rho      :      0.02s CPU      0.02s WALL (      10 calls)
     vdW_kernel   :      0.26s CPU      0.27s WALL (       1 calls)

     Called by c_bands:
     init_us_2    :      0.09s CPU      0.09s WALL (     736 calls)
     init_us_2:cp :      0.09s CPU      0.09s WALL (     736 calls)
     cegterg      :      8.51s CPU      8.70s WALL (     320 calls)

     Called by sum_band:
     sum_band:wei :      0.00s CPU      0.00s WALL (      10 calls)
     sum_band:loo :      1.24s CPU      1.28s WALL (      10 calls)
     sum_band:buf :      0.01s CPU      0.01s WALL (     320 calls)
     sum_band:ini :      0.04s CPU      0.04s WALL (     320 calls)
     sum_band:cal :      0.10s CPU      0.11s WALL (     320 calls)
     sum_band:bec :      0.00s CPU      0.01s WALL (     320 calls)
     addusdens    :      0.05s CPU      0.06s WALL (      10 calls)
     addusd:skk   :      0.00s CPU      0.00s WALL (      20 calls)
     addusd:dgemm :      0.01s CPU      0.01s WALL (      20 calls)
     addusd:qvan2 :      0.01s CPU      0.02s WALL (      20 calls)

     Called by *egterg:
     cdiaghg      :      0.71s CPU      0.73s WALL (    1577 calls)
     cegterg:over :      0.37s CPU      0.39s WALL (    1257 calls)
     cegterg:upda :      0.11s CPU      0.12s WALL (    1257 calls)
     cegterg:last :      0.24s CPU      0.24s WALL (     860 calls)
     h_psi        :      6.88s CPU      7.04s WALL (    1609 calls)
     s_psi        :      0.21s CPU      0.21s WALL (    1609 calls)
     g_psi        :      0.01s CPU      0.01s WALL (    1257 calls)

     Called by h_psi:
     h_psi:calbec :      0.38s CPU      0.39s WALL (    1609 calls)
     vloc_psi     :      6.24s CPU      6.39s WALL (    1609 calls)
     add_vuspsi   :      0.23s CPU      0.23s WALL (    1609 calls)

     General routines
     calbec       :      0.53s CPU      0.54s WALL (    2089 calls)
     fft          :      0.92s CPU      0.95s WALL (    2778 calls)
     ffts         :      0.00s CPU      0.00s WALL (      10 calls)
     fftw         :      6.86s CPU      7.02s WALL (   47096 calls)
 
     Parallel routines

     PAW routines
     PAW_pot      :      0.13s CPU      0.14s WALL (      11 calls)
     PAW_symme    :      0.01s CPU      0.01s WALL (      21 calls)
 
     PWSCF        :     14.15s CPU     15.70s WALL

 
   This run was terminated on:  17:26: 1  20Jul2023            

=------------------------------------------------------------------------------=
   JOB DONE.
=------------------------------------------------------------------------------=
